     864
 i =        0, time =        0.000, E =     -4113.8307854611
  H         0.0005770137       -0.0002200033        0.0001027190
  H         0.0001997261       -0.0002077952        0.0004380880
  H         0.0000090116       -0.0002034271        0.0002805330
  H        -0.0004545666       -0.0003465001       -0.0002142612
  H        -0.0003451455        0.0003015103       -0.0002679950
  H        -0.0000551384        0.0006290105       -0.0001819054
  H        -0.0001237140        0.0005151878       -0.0001885296
  H         0.0002312895       -0.0000918164        0.0004002384
  H         0.0000103733        0.0001226570       -0.0003499600
  H        -0.0002111857       -0.0000629315        0.0002974897
  H        -0.0000342249        0.0005584503        0.0000308785
  H         0.0006057406        0.0001927863        0.0001097527
  H        -0.0000198722       -0.0004395173        0.0003605284
  H        -0.0000937819        0.0001356187        0.0001331447
  H         0.0001823077        0.0000157865       -0.0000461484
  H        -0.0001976615        0.0002841009        0.0001671032
  H         0.0001867494       -0.0000277539        0.0006534078
  H        -0.0003419265        0.0000143456       -0.0001139272
  H         0.0004568064        0.0000166192       -0.0001573213
  H        -0.0008485148       -0.0000702912        0.0000650794
  H        -0.0003213007        0.0002544506       -0.0001782357
  H         0.0004607383        0.0003164444        0.0004171132
  H         0.0001665855       -0.0004591047        0.0001643488
  H         0.0001122363        0.0000267386        0.0000247288
  H        -0.0005087838       -0.0000621069        0.0002028333
  H        -0.0003871305        0.0000200067       -0.0001028206
  H        -0.0000232167        0.0004005951        0.0002997741
  H        -0.0002056683        0.0001908774        0.0003264075
  H         0.0006342351        0.0003551094        0.0003852743
  H         0.0001103236       -0.0002809639       -0.0002093023
  H         0.0005853906        0.0002253561       -0.0001910416
  H        -0.0003776720       -0.0003292387        0.0000643398
  H        -0.0005245963        0.0002613446       -0.0001267211
  H        -0.0001397740        0.0005549386        0.0001767735
  H         0.0000114445       -0.0000858975        0.0000001328
  H        -0.0004523409       -0.0000102921        0.0000557041
  H         0.0000608243        0.0000458919       -0.0004784665
  H        -0.0001533236       -0.0003232721       -0.0001581697
  H        -0.0001658827       -0.0001383421       -0.0001122629
  H         0.0000866881       -0.0001880134       -0.0000160864
  H        -0.0005043220       -0.0005031603       -0.0000112713
  H        -0.0000785251       -0.0001538878       -0.0002885392
  H         0.0001912576        0.0000840266       -0.0006180394
  H         0.0001508192        0.0004562880        0.0000099484
  H        -0.0004691717       -0.0000737628       -0.0001047936
  H         0.0002010776       -0.0001476383        0.0001108457
  H         0.0001801722       -0.0000129500       -0.0000037429
  H         0.0003538353       -0.0003084144        0.0003639814
  H         0.0001673922        0.0006493457        0.0003212111
  H         0.0000247857        0.0000392661        0.0000796694
  H        -0.0004741127       -0.0000832352       -0.0005119892
  H        -0.0002519888       -0.0002862722       -0.0000542056
  H         0.0003845111       -0.0000600679       -0.0001563656
  H         0.0005563983       -0.0001395069        0.0004226995
  H         0.0000717999       -0.0000342705        0.0004363829
  H         0.0001008602       -0.0001363887       -0.0001042765
  H        -0.0001483493        0.0002168100        0.0003433621
  H         0.0001538191       -0.0003318162        0.0000511931
  H        -0.0000538595        0.0000580996       -0.0001058691
  H         0.0003131041       -0.0002452704        0.0002530413
  H        -0.0002854125        0.0002868081       -0.0004116694
  H         0.0000382094       -0.0002556092        0.0004175125
  H        -0.0002250406        0.0002365642        0.0003952278
  H         0.0003829957        0.0002240010        0.0005036365
  H         0.0001607209        0.0000759279        0.0000647613
  H         0.0003098070        0.0000943162       -0.0007091696
  H         0.0002265537        0.0002930501        0.0006970098
  H        -0.0000231168       -0.0002828806       -0.0001505200
  H         0.0001916174       -0.0005395441        0.0002115070
  H        -0.0001985428        0.0004385601       -0.0002379149
  H        -0.0002610218       -0.0001843452       -0.0001354570
  H        -0.0002409607       -0.0005630134       -0.0001062046
  H        -0.0002976554       -0.0004522925        0.0005733504
  H        -0.0001834307        0.0000279334       -0.0004402769
  H         0.0001168541       -0.0000928278       -0.0003540208
  H         0.0000574646        0.0006310336       -0.0001610313
  H        -0.0001552386        0.0002657334        0.0006031317
  H        -0.0005947495        0.0001276201       -0.0002980468
  H        -0.0000451440       -0.0005358956       -0.0000047690
  H        -0.0001887729        0.0003611654        0.0002694936
  H        -0.0003147607       -0.0001215789       -0.0001550373
  H        -0.0001205975        0.0001513507        0.0003048950
  H        -0.0000369146        0.0004869943       -0.0000411726
  H         0.0002585820       -0.0002413992        0.0001931202
  H         0.0005182342        0.0003449246       -0.0003154418
  H        -0.0000812219        0.0001803592       -0.0000729348
  H        -0.0002041062       -0.0000065527       -0.0003178303
  H         0.0001468637        0.0000509571        0.0000291871
  H        -0.0001118867        0.0000106751       -0.0005957820
  H        -0.0001035359        0.0002047920       -0.0002843038
  H        -0.0003209715        0.0000679888        0.0004151459
  H         0.0001137205        0.0000742874       -0.0000601035
  H         0.0002418284        0.0001511837       -0.0004454443
  H         0.0001220258        0.0002202690       -0.0002630964
  H        -0.0000210702        0.0001880608        0.0000061083
  H        -0.0000023603       -0.0002860851        0.0000655634
  H        -0.0003378378       -0.0002593670       -0.0001256672
  H         0.0003345176       -0.0002412548       -0.0001095102
  H         0.0000796325       -0.0003357784       -0.0001079321
  H         0.0001234495       -0.0001105156       -0.0000222750
  H         0.0008478020        0.0002931231        0.0000187423
  H        -0.0005198869        0.0001605905        0.0004570948
  H         0.0003037296       -0.0006296022        0.0004326205
  H        -0.0004897588        0.0003121875       -0.0000430957
  H        -0.0000506780        0.0000144485        0.0002501592
  H         0.0003690240       -0.0001390092        0.0003541589
  H         0.0003306011       -0.0004049263       -0.0001454860
  H         0.0004350421        0.0004226752        0.0002438039
  H        -0.0008405628       -0.0002051124        0.0000002252
  H         0.0001201874       -0.0000668955        0.0003053038
  H        -0.0006886216        0.0003396667       -0.0006572406
  H         0.0002490810       -0.0000548413       -0.0004309367
  H         0.0000004624       -0.0003133208       -0.0000984922
  H         0.0002205362        0.0002614105        0.0000840688
  H        -0.0000131522        0.0002133198       -0.0005119969
  H         0.0004356776       -0.0002732789        0.0001045118
  H         0.0001254643       -0.0001551301        0.0001994795
  H        -0.0000328431       -0.0003004619        0.0001404314
  H         0.0000386184       -0.0002951421       -0.0000509775
  H         0.0001406069        0.0005588683       -0.0002059299
  H        -0.0002535578        0.0000843315       -0.0001797375
  H         0.0003595406       -0.0001427827        0.0003684860
  H        -0.0002961711       -0.0004353240       -0.0003344816
  H         0.0001455192       -0.0000914262        0.0000702365
  H         0.0003349043       -0.0004470543       -0.0003168935
  H        -0.0001465933       -0.0003496329        0.0002184737
  H        -0.0003322233        0.0004447234        0.0000550704
  H        -0.0000326320       -0.0001059872       -0.0000015242
  H         0.0006034340        0.0003267784       -0.0003208354
  H        -0.0001013938        0.0003189520        0.0002998314
  H        -0.0000737893        0.0000659115       -0.0000507838
  H        -0.0003021432       -0.0001611419        0.0002969996
  H        -0.0000623426        0.0001996495       -0.0000054389
  H         0.0001691603        0.0004766262        0.0000529134
  H        -0.0000357850        0.0000806482        0.0000911189
  H         0.0005072046        0.0002144705        0.0002682178
  H         0.0001864661        0.0000687059        0.0006513932
  H        -0.0000742907        0.0001385607       -0.0001379658
  H         0.0005200080        0.0001672611        0.0000189441
  H         0.0002198499       -0.0000494614       -0.0003342608
  H        -0.0004702224       -0.0001582666       -0.0002039186
  H        -0.0002637912        0.0000295106       -0.0001068733
  H         0.0000093263        0.0000502340        0.0001136208
  H        -0.0004910776       -0.0002304839       -0.0002134207
  H         0.0001802607       -0.0001226607        0.0003102271
  H         0.0000339701       -0.0001898833       -0.0000450707
  H         0.0002899527        0.0004907562       -0.0006308150
  H         0.0003209018        0.0002136313        0.0000698348
  H        -0.0001520220       -0.0002964886       -0.0000749765
  H        -0.0003596682       -0.0004262956       -0.0001517924
  H        -0.0001656605       -0.0003645151        0.0005322842
  H        -0.0001522064       -0.0006266392        0.0004141080
  H         0.0000047802        0.0004334460       -0.0002366374
  H        -0.0002115851       -0.0004080709       -0.0000014454
  H         0.0000153131       -0.0007746830       -0.0000847137
  H         0.0001634594       -0.0003092115        0.0000580333
  H         0.0007264050        0.0000217214        0.0002719962
  H        -0.0001879303        0.0002787608        0.0003531489
  H         0.0000032313        0.0002371866       -0.0002406504
  H        -0.0003282186        0.0002984115        0.0001743213
  H        -0.0004064743       -0.0000502258       -0.0003208907
  H        -0.0003786125       -0.0003275456       -0.0004295439
  H         0.0003553929        0.0000000265       -0.0000089764
  H         0.0000397198       -0.0000339712        0.0000647367
  H        -0.0001478611        0.0000525950       -0.0003493238
  H        -0.0003496100       -0.0002165942        0.0000038930
  H         0.0001259313       -0.0001590272       -0.0003355021
  H        -0.0004569238        0.0000220002        0.0003822796
  H        -0.0001590966        0.0008522055       -0.0000279351
  H        -0.0000645420       -0.0001404081        0.0003124302
  H         0.0004130264        0.0002760483       -0.0003102363
  H        -0.0003193363       -0.0004876221       -0.0000319025
  H         0.0006195190        0.0000908745        0.0004131686
  H         0.0000330896        0.0003258553        0.0000269502
  H        -0.0002329309        0.0002581489       -0.0003128114
  H        -0.0001509885        0.0002488786        0.0000914958
  H        -0.0002231556        0.0002270551       -0.0001975164
  H         0.0003558568        0.0000040756       -0.0000872550
  H         0.0000995047        0.0000401622       -0.0000931185
  H        -0.0005028616       -0.0002239984       -0.0001273771
  H         0.0001318979        0.0001357563       -0.0001421694
  H        -0.0002776890        0.0003754356        0.0001192143
  H         0.0011887856       -0.0002950837       -0.0000532375
  H         0.0004271910       -0.0002109428        0.0004124779
  H         0.0003646036        0.0001908754        0.0001146513
  H        -0.0000787225        0.0000823215        0.0003478840
  H         0.0004041540        0.0004247444       -0.0003681007
  H        -0.0000990153        0.0003421674        0.0000166149
  H        -0.0003106806        0.0000692370        0.0001772250
  H         0.0000887946        0.0002520974       -0.0007153037
  H        -0.0006746902        0.0000963016        0.0005212181
  H        -0.0001050610        0.0000196407       -0.0003877768
  H         0.0005504053        0.0001586719       -0.0002187711
  H         0.0000024031       -0.0006744975        0.0004772965
  H         0.0002101793       -0.0000066808        0.0007261683
  H        -0.0000968162        0.0001539703       -0.0002316557
  H         0.0000504700       -0.0004738629       -0.0003547593
  H         0.0002680805       -0.0001182705        0.0005274767
  H        -0.0003667100        0.0000158722       -0.0008526943
  H        -0.0007401828        0.0001184571       -0.0000331543
  H        -0.0004620017       -0.0004280370        0.0003194417
  H         0.0000234850       -0.0005725848        0.0006002154
  H        -0.0000370281       -0.0002129094        0.0001034310
  H        -0.0000167157        0.0004122990        0.0002691890
  H        -0.0004241560       -0.0000523777       -0.0003027220
  H         0.0005518508        0.0001420549       -0.0003266562
  H        -0.0004624843        0.0003790018        0.0002746415
  H        -0.0001322474       -0.0001803852       -0.0004624376
  H        -0.0002848310        0.0000573915       -0.0001075868
  H        -0.0001258560       -0.0002632192        0.0001653166
  H         0.0000288365        0.0002708158       -0.0001763356
  H         0.0000466249       -0.0002867935        0.0002949299
  H        -0.0002577758        0.0004084284        0.0000923437
  H         0.0001709579        0.0002170745       -0.0000445073
  H        -0.0004203083        0.0004181173        0.0000629649
  H        -0.0000691329        0.0001080664       -0.0001784210
  H         0.0003714870       -0.0001029812       -0.0004201249
  H        -0.0002458052        0.0000345691       -0.0001986071
  H         0.0005070733        0.0000525887        0.0002489241
  H        -0.0002214077        0.0001652082        0.0004274823
  H         0.0000615023        0.0000080862        0.0002304383
  H         0.0002533655       -0.0002083114        0.0002551449
  H         0.0000059012        0.0001530611       -0.0002580778
  H        -0.0001371948        0.0000972193        0.0001526214
  H        -0.0006602509        0.0000118384        0.0000689272
  H         0.0005875553       -0.0001583466       -0.0001581289
  H        -0.0001630001       -0.0001725156       -0.0002550489
  H        -0.0000692366       -0.0001952181       -0.0000464773
  H        -0.0001355519        0.0002164879       -0.0000297593
  H         0.0001208691        0.0001697887        0.0000756589
  H         0.0003873475       -0.0001287747       -0.0000586504
  H         0.0003442460       -0.0000342694        0.0002126554
  H        -0.0000600810       -0.0001889546        0.0004423240
  H         0.0002850604        0.0000217694       -0.0002437932
  H         0.0005717012       -0.0002978376        0.0002456060
  H         0.0002116879        0.0002502667        0.0000803880
  H        -0.0003888884        0.0003081841       -0.0000286889
  H        -0.0003363002        0.0000915162       -0.0001473115
  H         0.0000829182       -0.0000580602        0.0001320003
  H        -0.0003221641       -0.0000162187       -0.0004353153
  H        -0.0004391130        0.0003240369        0.0000056348
  H        -0.0000186176        0.0002534326        0.0000027385
  H         0.0000484454       -0.0000367923       -0.0001389785
  H        -0.0003624303        0.0001536612       -0.0000042443
  H        -0.0003941028       -0.0005935252       -0.0003812150
  H         0.0001395199       -0.0005070164        0.0000793031
  H        -0.0002538030       -0.0001142193        0.0002335105
  H         0.0000542291        0.0002020985        0.0005278845
  H         0.0004758175        0.0001294947       -0.0002302102
  H        -0.0000844884       -0.0001915800        0.0005054042
  H         0.0000488282        0.0004372987        0.0001084047
  H        -0.0000174113        0.0003759278        0.0001041579
  H        -0.0001087551        0.0001588948        0.0006262252
  H         0.0000255796        0.0001772172       -0.0000178165
  H        -0.0001345403       -0.0002231075       -0.0001830970
  H         0.0004493279       -0.0001997481       -0.0006189403
  H         0.0005124176        0.0001768773        0.0001138203
  H        -0.0001263184       -0.0001673888        0.0000669756
  H         0.0001033413        0.0002052519        0.0003812066
  H         0.0002047705        0.0000951052       -0.0000916328
  H        -0.0002804004        0.0002130345        0.0004572749
  H         0.0003298625       -0.0001735319       -0.0003600924
  H        -0.0002208314        0.0005682542       -0.0001178880
  H        -0.0003109748        0.0004004888       -0.0002374171
  H        -0.0006404074       -0.0003176821       -0.0000511707
  H        -0.0000369199       -0.0001903405       -0.0001302395
  H         0.0000714464       -0.0001520542       -0.0003455831
  H        -0.0001560122        0.0000296051        0.0000293024
  H         0.0003539488       -0.0004684833        0.0000519336
  H        -0.0001576167        0.0006539253        0.0002789359
  H        -0.0000777195       -0.0001524396        0.0004558612
  H        -0.0000841973       -0.0001076022       -0.0003443840
  H        -0.0004260198        0.0001770394       -0.0000417916
  H         0.0000042324       -0.0001622957       -0.0001614031
  H         0.0004392381       -0.0001577111        0.0004038524
  H         0.0000869130       -0.0001582396       -0.0002197197
  H         0.0003006184       -0.0001613775        0.0003182411
  H        -0.0003209057       -0.0001520843       -0.0000830045
  H        -0.0003271351       -0.0000277474       -0.0000692112
  H         0.0002804881       -0.0002423050       -0.0001725503
  H         0.0000230006        0.0003802545       -0.0000671505
  H        -0.0001350513       -0.0002708586       -0.0000945471
  H        -0.0003851249       -0.0000945387       -0.0005367389
  H        -0.0002705312       -0.0003583683       -0.0002853495
  H         0.0000099053        0.0002250001        0.0000432875
  H        -0.0005138530       -0.0000250444       -0.0001294055
  H         0.0008375801       -0.0001870504       -0.0001559207
  H        -0.0001664658        0.0001672371       -0.0000226291
  H         0.0007998036        0.0001494828        0.0004719951
  H        -0.0004868937       -0.0002135148       -0.0001724081
  H        -0.0004523169        0.0005958757        0.0002221023
  H        -0.0003846850        0.0002068869       -0.0005262831
  H        -0.0001369978       -0.0000287746        0.0001251160
  H        -0.0001505602        0.0003501644        0.0001021204
  H        -0.0002895408       -0.0002566361       -0.0000294864
  H         0.0000340927       -0.0000667166        0.0002164486
  H         0.0000873515        0.0000908254        0.0000203458
  H         0.0002850072        0.0001620795       -0.0004683154
  H         0.0000227943        0.0004196664       -0.0000468410
  H         0.0002289905       -0.0000382023        0.0003144241
  H        -0.0003166892       -0.0004373816        0.0001207564
  H        -0.0000947990       -0.0001633725       -0.0001120042
  H         0.0000712085        0.0001186534       -0.0000926993
  H        -0.0004723200       -0.0004866773       -0.0000593340
  H         0.0000281907       -0.0002882335       -0.0006889322
  H         0.0000403586        0.0000204176        0.0000471842
  H        -0.0002333431       -0.0001336985       -0.0001993068
  H        -0.0000684133        0.0003418588        0.0003497893
  H        -0.0001455416        0.0002799531        0.0002695079
  H         0.0000155565       -0.0000093734        0.0001111194
  H         0.0000317550        0.0001189252       -0.0001241350
  H         0.0001966969       -0.0000774063        0.0001537795
  H         0.0002003341       -0.0001509299        0.0000832484
  H         0.0004645782        0.0006093439       -0.0000301571
  H        -0.0003534335        0.0002031568       -0.0000867384
  H        -0.0001811519       -0.0001896009       -0.0006388695
  H        -0.0001534472        0.0000425209       -0.0003862162
  H        -0.0000244189        0.0004430918       -0.0005540816
  H        -0.0006960406        0.0002488695       -0.0000831059
  H         0.0001455326       -0.0001091103       -0.0000583717
  H        -0.0005328790       -0.0000374337        0.0004761384
  H        -0.0001484317       -0.0003229780       -0.0002082846
  H         0.0006154394        0.0000875617        0.0001965151
  H        -0.0003054366        0.0003239277        0.0000125649
  H        -0.0002474197        0.0004922809        0.0004671831
  H        -0.0000376386       -0.0003136615        0.0005638673
  H        -0.0005057526       -0.0000253449        0.0000543212
  H        -0.0001516884       -0.0001361430       -0.0002929534
  H         0.0002844727       -0.0001270564       -0.0001621907
  H         0.0003724652        0.0002185464        0.0005614414
  H         0.0002185361       -0.0001386883       -0.0000160576
  H        -0.0001463896       -0.0003754348        0.0002025812
  H         0.0000831909       -0.0000603092        0.0003048504
  H        -0.0003686959       -0.0002171820       -0.0007194130
  H         0.0000442525       -0.0001342611        0.0004444584
  H        -0.0000211914       -0.0002297472       -0.0000213668
  H        -0.0002839675        0.0001730562        0.0002589042
  H         0.0001802226       -0.0000546384       -0.0000114878
  H        -0.0003267680        0.0000027845        0.0000036933
  H        -0.0003552309       -0.0004663510       -0.0007860150
  H         0.0003143183        0.0002840400        0.0000776208
  H        -0.0000337943       -0.0005000583       -0.0004550650
  H        -0.0005850429       -0.0003912096        0.0001835566
  H         0.0000206089        0.0004171267        0.0000118941
  H         0.0003888048       -0.0000982511        0.0001060030
  H        -0.0003453061       -0.0007633254       -0.0002748457
  H        -0.0000613090        0.0000360211        0.0002908201
  H         0.0003020990        0.0002270204       -0.0003051819
  H         0.0007035089       -0.0004628265        0.0002415636
  H        -0.0002370929        0.0001347256       -0.0003348232
  H         0.0000070592       -0.0001470343       -0.0006752299
  H        -0.0002171722        0.0000499550        0.0001213071
  H         0.0000440909       -0.0004413313        0.0003869443
  H        -0.0003131189        0.0002373915        0.0002650955
  H        -0.0001373499       -0.0002943611        0.0004058768
  H        -0.0003433205       -0.0003178332        0.0003583222
  H        -0.0003542771        0.0002606472        0.0005069240
  H         0.0004059508       -0.0004861614        0.0000945952
  H        -0.0004153920        0.0001453913       -0.0001809364
  H        -0.0001660980        0.0001562190       -0.0003064336
  H         0.0005049043        0.0000845309        0.0006826730
  H        -0.0003884073       -0.0003098203       -0.0000270002
  H         0.0001058112        0.0007364298       -0.0002684318
  H        -0.0001549083        0.0005808949        0.0001496544
  H         0.0000904874        0.0002908919        0.0006128488
  H        -0.0003965997       -0.0002222324       -0.0001196129
  H        -0.0001903769        0.0001419959        0.0001917293
  H        -0.0004539349       -0.0000626817        0.0003734403
  H         0.0003717884        0.0000044152       -0.0002342708
  H        -0.0006238818        0.0001566260       -0.0001731635
  H        -0.0007065959       -0.0000004133        0.0001276448
  H        -0.0000013901        0.0002068821       -0.0001342864
  H        -0.0003524986        0.0001785200        0.0000528986
  H        -0.0000202927       -0.0002813569        0.0003423911
  H         0.0004461788        0.0003219699        0.0002154129
  H         0.0000630492       -0.0003106053        0.0002623774
  H         0.0003941609       -0.0000555095       -0.0001806650
  H         0.0001808122        0.0001880252       -0.0003915367
  H         0.0000324225        0.0002604641       -0.0001413839
  H        -0.0003926180        0.0000743364        0.0005165323
  H        -0.0003017771       -0.0000248108        0.0002228382
  H        -0.0000605391       -0.0003960437       -0.0001150762
  H         0.0001416411       -0.0000470191       -0.0001016371
  H         0.0002240937        0.0001037415        0.0002332297
  H        -0.0001459797       -0.0005752941       -0.0000117037
  H         0.0001088889        0.0000557720        0.0002151162
  H        -0.0002267929        0.0001718255       -0.0001654589
  H         0.0005677581        0.0001974889        0.0002239793
  H        -0.0003978474        0.0004723374        0.0006208890
  H         0.0000198688        0.0000896266        0.0000080935
  H        -0.0004613317        0.0005938868       -0.0003383454
  H        -0.0006662737       -0.0003249926        0.0001087551
  H        -0.0004057873        0.0001614308       -0.0001928763
  H         0.0000846109        0.0003998724       -0.0000589536
  H         0.0000691255        0.0001030974        0.0000526326
  H        -0.0002159804        0.0001974510       -0.0000300905
  H        -0.0003669623        0.0001812089        0.0002046369
  H        -0.0001728264       -0.0004436768        0.0000341503
  H         0.0001347950        0.0000600638        0.0006793475
  H         0.0000156415       -0.0002469196        0.0002518570
  H         0.0002795816       -0.0000439515       -0.0004384964
  H         0.0000361515        0.0001662096        0.0000114331
  H         0.0001368070        0.0004079122       -0.0001490110
  H         0.0003606791        0.0002197665       -0.0006607393
  H        -0.0000417859        0.0001537583       -0.0000318206
  H        -0.0002830042       -0.0004820330       -0.0001122594
  H        -0.0006316188        0.0001409397       -0.0000184713
  H         0.0002636388       -0.0002758048       -0.0002113676
  H         0.0002669912        0.0002057481        0.0002122704
  H         0.0000573256       -0.0000171387        0.0005756552
  H         0.0002083956       -0.0001354103        0.0001669207
  H        -0.0006170662       -0.0001181964        0.0000965421
  H        -0.0002052993       -0.0000758378        0.0004005716
  H        -0.0001900350       -0.0005068357       -0.0000780187
  H        -0.0001243205       -0.0005133977       -0.0002837726
  H        -0.0001230654        0.0001331490       -0.0000106265
  H        -0.0004299627        0.0005613449       -0.0000318498
  H         0.0000906865        0.0001847854       -0.0006113607
  H        -0.0000102342       -0.0002420290       -0.0001259304
  H         0.0001324220        0.0001600011        0.0003920115
  H         0.0001031209        0.0005314695       -0.0004772803
  H        -0.0002063386       -0.0001812555       -0.0004628671
  H         0.0001353091        0.0000749684        0.0003393338
  H        -0.0000731146       -0.0005080882        0.0001290651
  H        -0.0001022773       -0.0003743406       -0.0001821824
  H         0.0000599926       -0.0000038484       -0.0002818003
  H        -0.0004892642        0.0000107408        0.0006458927
  H        -0.0004116341       -0.0002433137       -0.0002841515
  H         0.0001107515       -0.0001653925       -0.0000815086
  H         0.0003541033       -0.0000278915       -0.0001449369
  H         0.0001790961       -0.0001709940       -0.0002112414
  H         0.0003349166       -0.0001083603        0.0003784268
  C         0.0000147327        0.0000126461        0.0000021914
  C         0.0000472908        0.0000889975       -0.0001139300
  C        -0.0000463771       -0.0001018315        0.0001573889
  C        -0.0000688250       -0.0000101455       -0.0000317437
  C         0.0000367435       -0.0000220131        0.0000944297
  C         0.0000667316       -0.0002433285       -0.0000105861
  C         0.0000019095        0.0000486471       -0.0000159993
  C        -0.0000725481       -0.0000987854        0.0000128513
  C        -0.0000007807        0.0000350472       -0.0000980305
  C        -0.0000186109       -0.0001030766       -0.0001652096
  C         0.0000549840        0.0000888405        0.0000063102
  C        -0.0001292727        0.0000065740       -0.0000022466
  C        -0.0000054531       -0.0000018433       -0.0000722382
  C         0.0000459514       -0.0000064840       -0.0000672130
  C         0.0000136644       -0.0000435591       -0.0000579728
  C        -0.0000282858        0.0000969018        0.0000701288
  C        -0.0000154226        0.0000045461        0.0000943105
  C         0.0000331201        0.0000311235       -0.0000839796
  C         0.0000884042        0.0000858219       -0.0002253362
  C         0.0001892262        0.0000914506        0.0000155082
  C        -0.0000653342       -0.0000054958       -0.0000704067
  C        -0.0001235022       -0.0000311225       -0.0000091221
  C        -0.0000244619        0.0000776308       -0.0000714317
  C        -0.0000798864       -0.0002008890       -0.0000247373
  C        -0.0000876306       -0.0001513983        0.0001351004
  C        -0.0000822213       -0.0000424146       -0.0000547647
  C        -0.0001249052        0.0000079206       -0.0001114524
  C         0.0000692694       -0.0000515635        0.0000509703