     864
 i =        0, time =        0.000, E =     -4113.8307854611
  H         3.7922580360        2.1509799628        3.4747534555
  H        12.7414111743        2.2524946890        3.0746715314
  H        21.6905643125        2.3540094152        2.6745896074
  H         3.7922580360       14.4467298522        3.4014830761
  H        12.7414111743       14.5482445783        3.0014011520
  H        21.6905643125       14.6497593045        2.6013192279
  H         3.7922580360        2.1509799628       12.2945522254
  H        12.7414111743        2.2524946890       11.8944703013
  H        21.6905643125        2.3540094152       11.4943883773
  H         3.7922580360       14.4467298522       12.2212818460
  H        12.7414111743       14.5482445783       11.8211999219
  H        21.6905643125       14.6497593045       11.4211179978
  H         3.7922580360        2.1509799628       21.1143509953
  H        12.7414111743        2.2524946890       20.7142690712
  H        21.6905643125        2.3540094152       20.3141871472
  H         3.7922580360       14.4467298522       21.0410806159
  H        12.7414111743       14.5482445783       20.6409986918
  H        21.6905643125       14.6497593045       20.2409167677
  H         6.0340377072        3.0640379467        3.7054040327
  H        14.9831908454        3.1655526728        3.3053221086
  H        23.9323439837        3.2670673990        2.9052401845
  H         6.0340377072       15.3597878360        3.6321336532
  H        14.9831908454       15.4613025621        3.2320517292
  H        23.9323439837       15.5628172883        2.8319698051
  H         6.0340377072        3.0640379467       12.5252028026
  H        14.9831908454        3.1655526728       12.1251208785
  H        23.9323439837        3.2670673990       11.7250389544
  H         6.0340377072       15.3597878360       12.4519324231
  H        14.9831908454       15.4613025621       12.0518504991
  H        23.9323439837       15.5628172883       11.6517685750
  H         6.0340377072        3.0640379467       21.3450015725
  H        14.9831908454        3.1655526728       20.9449196484
  H        23.9323439837        3.2670673990       20.5448377243
  H         6.0340377072       15.3597878360       21.2717311930
  H        14.9831908454       15.4613025621       20.8716492690
  H        23.9323439837       15.5628172883       20.4715673449
  H        26.1651759550        8.5526010139        6.8477854001
  H         8.2668696785        8.3495715616        7.6479492483
  H        17.2160228168        8.4510862878        7.2478673242
  H        26.1651759550       20.8483509032        6.7745150207
  H         8.2668696785       20.6453214509        7.5746788688
  H        17.2160228168       20.7468361771        7.1745969448
  H        26.1651759550        8.5526010139       15.6675841700
  H         8.2668696785        8.3495715616       16.4677480181
  H        17.2160228168        8.4510862878       16.0676660941
  H        26.1651759550       20.8483509032       15.5943137906
  H         8.2668696785       20.6453214509       16.3944776387
  H        17.2160228168       20.7468361771       15.9943957147
  H        26.1651759550        8.5526010139       24.4873829399
  H         8.2668696785        8.3495715616       25.2875467880
  H        17.2160228168        8.4510862878       24.8874648640
  H        26.1651759550       20.8483509032       24.4141125605
  H         8.2668696785       20.6453214509       25.2142764086
  H        17.2160228168       20.7468361771       24.8141944846
  H         3.8468403319        8.2671003639        3.4211059995
  H        12.7959934702        8.3686150901        3.0210240755
  H        21.7451466084        8.4701298163        2.6209421514
  H         3.8468403319       20.5628502533        3.3478356201
  H        12.7959934702       20.6643649794        2.9477536961
  H        21.7451466084       20.7658797056        2.5476717720
  H         3.8468403319        8.2671003639       12.2409047694
  H        12.7959934702        8.3686150901       11.8408228454
  H        21.7451466084        8.4701298163       11.4407409213
  H         3.8468403319       20.5628502533       12.1676343900
  H        12.7959934702       20.6643649794       11.7675524659
  H        21.7451466084       20.7658797056       11.3674705419
  H         3.8468403319        8.2671003639       21.0607035393
  H        12.7959934702        8.3686150901       20.6606216153
  H        21.7451466084        8.4701298163       20.2605396912
  H         3.8468403319       20.5628502533       20.9874331599
  H        12.7959934702       20.6643649794       20.5873512358
  H        21.7451466084       20.7658797056       20.1872693118
  H         3.8716346777       10.7079581019        3.3404560757
  H        12.8207878160       10.8094728281        2.9403741517
  H        21.7699409542       10.9109875542        2.5402922276
  H         3.8716346777       23.0037079912        3.2671856963
  H        12.8207878160       23.1052227174        2.8671037723
  H        21.7699409542       23.2067374435        2.4670218482
  H         3.8716346777       10.7079581019       12.1602548456
  H        12.8207878160       10.8094728281       11.7601729216
  H        21.7699409542       10.9109875542       11.3600909975
  H         3.8716346777       23.0037079912       12.0869844662
  H        12.8207878160       23.1052227174       11.6869025421
  H        21.7699409542       23.2067374435       11.2868206181
  H         3.8716346777       10.7079581019       20.9800536155
  H        12.8207878160       10.8094728281       20.5799716915
  H        21.7699409542       10.9109875542       20.1798897674
  H         3.8716346777       23.0037079912       20.9067832361
  H        12.8207878160       23.1052227174       20.5067013120
  H        21.7699409542       23.2067374435       20.1066193880
  H         8.3214594389        2.1699784531       25.3071609600
  H        17.2706125772        2.2714931793       24.9070790359
  H        26.2197657155        2.3730079054       24.5069971118
  H         8.3214594389       14.4657283424       25.2338905805
  H        17.2706125772       14.5672430686       24.8338086565
  H        26.2197657155       14.6687577947       24.4337267324
  H         8.3214594389        2.1699784531        7.6675634202
  H        17.2706125772        2.2714931793        7.2674814961
  H        26.2197657155        2.3730079054        6.8673995720
  H         8.3214594389       14.4657283424        7.5942930407
  H        17.2706125772       14.5672430686        7.1942111167
  H        26.2197657155       14.6687577947        6.7941291926
  H         8.3214594389        2.1699784531       16.4873621901
  H        17.2706125772        2.2714931793       16.0872802660
  H        26.2197657155        2.3730079054       15.6871983419
  H         8.3214594389       14.4657283424       16.4140918106
  H        17.2706125772       14.5672430686       16.0140098866
  H        26.2197657155       14.6687577947       15.6139279625
  H         5.1116479086        8.3349092864        4.6975643505
  H        14.0608010469        8.4364240126        4.2974824265
  H        23.0099541851        8.5379387387        3.8974005024
  H         5.1116479086       20.6306591757        4.6242939711
  H        14.0608010469       20.7321739019        4.2242120470
  H        23.0099541851       20.8336886280        3.8241301230
  H         5.1116479086        8.3349092864       13.5173631204
  H        14.0608010469        8.4364240126       13.1172811963
  H        23.0099541851        8.5379387387       12.7171992723
  H         5.1116479086       20.6306591757       13.4440927410
  H        14.0608010469       20.7321739019       13.0440108169
  H        23.0099541851       20.8336886280       12.6439288929
  H         5.1116479086        8.3349092864       22.3371618903
  H        14.0608010469        8.4364240126       21.9370799662
  H        23.0099541851        8.5379387387       21.5369980422
  H         5.1116479086       20.6306591757       22.2638915109
  H        14.0608010469       20.7321739019       21.8638095868
  H        23.0099541851       20.8336886280       21.4637276628
  H         5.0586261041       10.7744812785        4.5417772683
  H        14.0077792423       10.8759960047        4.1416953442
  H        22.9569323806       10.9775107308        3.7416134202
  H         5.0586261041       23.0702311678        4.4685068889
  H        14.0077792423       23.1717458940        4.0684249648
  H        22.9569323806       23.2732606201        3.6683430407
  H         5.0586261041       10.7744812785       13.3615760382
  H        14.0077792423       10.8759960047       12.9614941141
  H        22.9569323806       10.9775107308       12.5614121901
  H         5.0586261041       23.0702311678       13.2883056588
  H        14.0077792423       23.1717458940       12.8882237347
  H        22.9569323806       23.2732606201       12.4881418106
  H         5.0586261041       10.7744812785       22.1813748081
  H        14.0077792423       10.8759960047       21.7812928840
  H        22.9569323806       10.9775107308       21.3812109600
  H         5.0586261041       23.0702311678       22.1081044287
  H        14.0077792423       23.1717458940       21.7080225046
  H        22.9569323806       23.2732606201       21.3079405805
  H         9.5862132938        2.2378133923        0.1242743133
  H        18.5353664320        2.3393281184       -0.2758076108
  H         0.6370601555        2.1362986661        0.5243562374
  H         9.5862132938       14.5335632816        0.0510039339
  H        18.5353664320       14.6350780077       -0.3490779902
  H         0.6370601555       14.4320485554        0.4510858580
  H         9.5862132938        2.2378133923        8.9440730832
  H        18.5353664320        2.3393281184        8.5439911591
  H         0.6370601555        2.1362986661        9.3441550073
  H         9.5862132938       14.5335632816        8.8708027038
  H        18.5353664320       14.6350780077        8.4707207797
  H         0.6370601555       14.4320485554        9.2708846279
  H         9.5862132938        2.2378133923       17.7638718531
  H        18.5353664320        2.3393281184       17.3637899290
  H         0.6370601555        2.1362986661       18.1639537772
  H         9.5862132938       14.5335632816       17.6906014737
  H        18.5353664320       14.6350780077       17.2905195496
  H         0.6370601555       14.4320485554       18.0906833977
  H         3.3467782653        2.9806512100        5.0119930482
  H        12.2959314036        3.0821659362        4.6119111241
  H        21.2450845419        3.1836806623        4.2118292000
  H         3.3467782653       15.2764010993        4.9387226687
  H        12.2959314036       15.3779158255        4.5386407447
  H        21.2450845419       15.4794305517        4.1385588206
  H         3.3467782653        2.9806512100       13.8317918181
  H        12.2959314036        3.0821659362       13.4317098940
  H        21.2450845419        3.1836806623       13.0316279699
  H         3.3467782653       15.2764010993       13.7585214386
  H        12.2959314036       15.3779158255       13.3584395146
  H        21.2450845419       15.4794305517       12.9583575905
  H         3.3467782653        2.9806512100       22.6515905880
  H        12.2959314036        3.0821659362       22.2515086639
  H        21.2450845419        3.1836806623       21.8514267398
  H         3.3467782653       15.2764010993       22.5783202085
  H        12.2959314036       15.3779158255       22.1782382845
  H        21.2450845419       15.4794305517       21.7781563604
  H         5.6391839684        3.8304571978        5.1415226096
  H        14.5883371066        3.9319719240        4.7414406855
  H        23.5374902449        4.0334866501        4.3413587615
  H         5.6391839684       16.1262070871        5.0682522302
  H        14.5883371066       16.2277218133        4.6681703061
  H        23.5374902449       16.3292365394        4.2680883820
  H         5.6391839684        3.8304571978       13.9613213795
  H        14.5883371066        3.9319719240       13.5612394554
  H        23.5374902449        4.0334866501       13.1611575314
  H         5.6391839684       16.1262070871       13.8880510001
  H        14.5883371066       16.2277218133       13.4879690760
  H        23.5374902449       16.3292365394       13.0878871519
  H         5.6391839684        3.8304571978       22.7811201494
  H        14.5883371066        3.9319719240       22.3810382253
  H        23.5374902449        4.0334866501       21.9809563013
  H         5.6391839684       16.1262070871       22.7078497700
  H        14.5883371066       16.2277218133       22.3077678459
  H        23.5374902449       16.3292365394       21.9076859218
  H        25.7196554103        9.3821313993        8.3850911425
  H         7.8213491337        9.1791019469        9.1852549907
  H        16.7705022720        9.2806166731        8.7851730666
  H        25.7196554103       21.6778812886        8.3118207631
  H         7.8213491337       21.4748518362        9.1119846112
  H        16.7705022720       21.5763665624        8.7119026872
  H        25.7196554103        9.3821313993       17.2048899124
  H         7.8213491337        9.1791019469       18.0050537606
  H        16.7705022720        9.2806166731       17.6049718365
  H        25.7196554103       21.6778812886       17.1316195330
  H         7.8213491337       21.4748518362       17.9317833811
  H        16.7705022720       21.5763665624       17.5317014571
  H        25.7196554103        9.3821313993       -0.4347076274
  H         7.8213491337        9.1791019469        0.3654562208
  H        16.7705022720        9.2806166731       -0.0346257033
  H        25.7196554103       21.6778812886       -0.5079780068
  H         7.8213491337       21.4748518362        0.2921858413
  H        16.7705022720       21.5763665624       -0.1078960827
  H         5.6497906545        2.1415323610        5.0583673997
  H        14.5989437928        2.2430470872        4.6582854757
  H        23.5480969311        2.3445618133        4.2582035516
  H         5.6497906545       14.4372822503        4.9850970203
  H        14.5989437928       14.5387969765        4.5850150962
  H        23.5480969311       14.6403117026        4.1849331722
  H         5.6497906545        2.1415323610       13.8781661696
  H        14.5989437928        2.2430470872       13.4780842456
  H        23.5480969311        2.3445618133       13.0780023215
  H         5.6497906545       14.4372822503       13.8048957902
  H        14.5989437928       14.5387969765       13.4048138661
  H        23.5480969311       14.6403117026       13.0047319421
  H         5.6497906545        2.1415323610       22.6979649395
  H        14.5989437928        2.2430470872       22.2978830155
  H        23.5480969311        2.3445618133       21.8978010914
  H         5.6497906545       14.4372822503       22.6246945601
  H        14.5989437928       14.5387969765       22.2246126360
  H        23.5480969311       14.6403117026       21.8245307120
  H         3.7812394230        3.9469530329        3.5551078082
  H        12.7303925613        4.0484677590        3.1550258842
  H        21.6795456996        4.1499824852        2.7549439601
  H         3.7812394230       16.2427029222        3.4818374288
  H        12.7303925613       16.3442176483        3.0817555048
  H        21.6795456996       16.4457323745        2.6816735807
  H         3.7812394230        3.9469530329       12.3749065781
  H        12.7303925613        4.0484677590       11.9748246541
  H        21.6795456996        4.1499824852       11.5747427300
  H         3.7812394230       16.2427029222       12.3016361987
  H        12.7303925613       16.3442176483       11.9015542746
  H        21.6795456996       16.4457323745       11.5014723506
  H         3.7812394230        3.9469530329       21.1947053480
  H        12.7303925613        4.0484677590       20.7946234240
  H        21.6795456996        4.1499824852       20.3945414999
  H         3.7812394230       16.2427029222       21.1214349686
  H        12.7303925613       16.3442176483       20.7213530445
  H        21.6795456996       16.4457323745       20.3212711205
  H        26.1540201218       10.3485682805        6.9282678893
  H         8.2557138453       10.1455388282        7.7284317374
  H        17.2048669835       10.2470535544        7.3283498134
  H        26.1540201218       22.6443181699        6.8549975099
  H         8.2557138453       22.4412887175        7.6551613580
  H        17.2048669835       22.5428034437        7.2550794339
  H        26.1540201218       10.3485682805       15.7480666592
  H         8.2557138453       10.1455388282       16.5482305073
  H        17.2048669835       10.2470535544       16.1481485833
  H        26.1540201218       22.6443181699       15.6747962798
  H         8.2557138453       22.4412887175       16.4749601279
  H        17.2048669835       22.5428034437       16.0748782038
  H        26.1540201218       10.3485682805       24.5678654291
  H         8.2557138453       10.1455388282       25.3680292772
  H        17.2048669835       10.2470535544       24.9679473532
  H        26.1540201218       22.6443181699       24.4945950497
  H         8.2557138453       22.4412887175       25.2947588978
  H        17.2048669835       22.5428034437       24.8946769737
  H         5.4093879637       10.0940203293        3.0529977745
  H        14.3585411020       10.1955350555        2.6529158505
  H        23.3076942403       10.2970497816        2.2528339264
  H         5.4093879637       22.3897702186        2.9797273951
  H        14.3585411020       22.4912849448        2.5796454710
  H        23.3076942403       22.5927996709        2.1795635470
  H         5.4093879637       10.0940203293       11.8727965444
  H        14.3585411020       10.1955350555       11.4727146204
  H        23.3076942403       10.2970497816       11.0726326963
  H         5.4093879637       22.3897702186       11.7995261650
  H        14.3585411020       22.4912849448       11.3994442409
  H        23.3076942403       22.5927996709       10.9993623169
  H         5.4093879637       10.0940203293       20.6925953143
  H        14.3585411020       10.1955350555       20.2925133903
  H        23.3076942403       10.2970497816       19.8924314662
  H         5.4093879637       22.3897702186       20.6193249349
  H        14.3585411020       22.4912849448       20.2192430108
  H        23.3076942403       22.5927996709       19.8191610868
  H         3.4630614171        8.9810460331        5.0307487975
  H        12.4122145553        9.0825607592        4.6306668734
  H        21.3613676936        9.1840754854        4.2305849493
  H         3.4630614171       21.2767959224        4.9574784180
  H        12.4122145553       21.3783106485        4.5573964940
  H        21.3613676936       21.4798253747        4.1573145699
  H         3.4630614171        8.9810460331       13.8505475674
  H        12.4122145553        9.0825607592       13.4504656433
  H        21.3613676936        9.1840754854       13.0503837192
  H         3.4630614171       21.2767959224       13.7772771879
  H        12.4122145553       21.3783106485       13.3771952639
  H        21.3613676936       21.4798253747       12.9771133398
  H         3.4630614171        8.9810460331       22.6703463373
  H        12.4122145553        9.0825607592       22.2702644132
  H        21.3613676936        9.1840754854       21.8701824891
  H         3.4630614171       21.2767959224       22.5970759578
  H        12.4122145553       21.3783106485       22.1969940338
  H        21.3613676936       21.4798253747       21.7969121097
  H         7.9376045006        2.8839267513        0.4573883784
  H        16.8867576389        2.9854414775        0.0573064544
  H        25.8359107771        3.0869562036       -0.3427754697
  H         7.9376045006       15.1796766406        0.3841179990
  H        16.8867576389       15.2811913668       -0.0159639250
  H        25.8359107771       15.3827060929       -0.4160458491
  H         7.9376045006        2.8839267513        9.2771871483
  H        16.8867576389        2.9854414775        8.8771052243
  H        25.8359107771        3.0869562036        8.4770233002
  H         7.9376045006       15.1796766406        9.2039167689
  H        16.8867576389       15.2811913668        8.8038348448
  H        25.8359107771       15.3827060929        8.4037529208
  H         7.9376045006        2.8839267513       18.0969859182
  H        16.8867576389        2.9854414775       17.6969039942
  H        25.8359107771        3.0869562036       17.2968220701
  H         7.9376045006       15.1796766406       18.0237155388
  H        16.8867576389       15.2811913668       17.6236336147
  H        25.8359107771       15.3827060929       17.2235516907
  H        10.1244200059        8.3401555882        0.4117452782
  H        19.0735731442        8.4416703144        0.0116633541
  H         1.1752668676        8.2386408620        0.8118272022
  H        10.1244200059       20.6359054775        0.3384748988
  H        19.0735731442       20.7374202037       -0.0616070253
  H         1.1752668676       20.5343907514        0.7385568228
  H        10.1244200059        8.3401555882        9.2315440481
  H        19.0735731442        8.4416703144        8.8314621240
  H         1.1752668676        8.2386408620        9.6316259721
  H        10.1244200059       20.6359054775        9.1582736686
  H        19.0735731442       20.7374202037        8.7581917446
  H         1.1752668676       20.5343907514        9.5583555927
  H        10.1244200059        8.3401555882       18.0513428180
  H        19.0735731442        8.4416703144       17.6512608939
  H         1.1752668676        8.2386408620       18.4514247420
  H        10.1244200059       20.6359054775       17.9780724385
  H        19.0735731442       20.7374202037       17.5779905145
  H         1.1752668676       20.5343907514       18.3781543626
  H        26.2445222628        4.8138707808       24.4263472739
  H         8.3462159863        4.6108413285       25.2265111221
  H        17.2953691246        4.7123560546       24.8264291980
  H        26.2445222628       17.1096206701       24.3530768945
  H         8.3462159863       16.9065912178       25.1532407426
  H        17.2953691246       17.0081059439       24.7531588186
  H        26.2445222628        4.8138707808        6.7867497341
  H         8.3462159863        4.6108413285        7.5869135823
  H        17.2953691246        4.7123560546        7.1868316582
  H        26.2445222628       17.1096206701        6.7134793547
  H         8.3462159863       16.9065912178        7.5136432028
  H        17.2953691246       17.0081059439        7.1135612788
  H        26.2445222628        4.8138707808       15.6065485040
  H         8.3462159863        4.6108413285       16.4067123522
  H        17.2953691246        4.7123560546       16.0066304281
  H        26.2445222628       17.1096206701       15.5332781246
  H         8.3462159863       16.9065912178       16.3334419727
  H        17.2953691246       17.0081059439       15.9333600487
  H         0.5840214797        4.5758639727        0.3685482963
  H         9.5331746180        4.6773786988       -0.0315336277
  H        18.4823277562        4.7788934250       -0.4316155518
  H         0.5840214797       16.8716138620        0.2952779169
  H         9.5331746180       16.9731285881       -0.1048040072
  H        18.4823277562       17.0746433143       -0.5048859312
  H         0.5840214797        4.5758639727        9.1883470662
  H         9.5331746180        4.6773786988        8.7882651422
  H        18.4823277562        4.7788934250        8.3881832181
  H         0.5840214797       16.8716138620        9.1150766868
  H         9.5331746180       16.9731285881        8.7149947627
  H        18.4823277562       17.0746433143        8.3149128387
  H         0.5840214797        4.5758639727       18.0081458361
  H         9.5331746180        4.6773786988       17.6080639121
  H        18.4823277562        4.7788934250       17.2079819880
  H         0.5840214797       16.8716138620       17.9348754567
  H         9.5331746180       16.9731285881       17.5347935326
  H        18.4823277562       17.0746433143       17.1347116086
  H        10.5085823925        9.2627785087        7.8786289929
  H        19.4577355307        9.3642932349        7.4785470688
  H         1.5594292542        9.1612637825        8.2787109169
  H        10.5085823925       21.5585283980        7.8053586134
  H        19.4577355307       21.6600431242        7.4052766894
  H         1.5594292542       21.4570136719        8.2054405375
  H        10.5085823925        9.2627785087       16.6984277628
  H        19.4577355307        9.3642932349       16.2983458387
  H         1.5594292542        9.1612637825       17.0985096868
  H        10.5085823925       21.5585283980       16.6251573833
  H        19.4577355307       21.6600431242       16.2250754593
  H         1.5594292542       21.4570136719       17.0252393074
  H        10.5085823925        9.2627785087       25.5182265327
  H        19.4577355307        9.3642932349       25.1181446086
  H         1.5594292542        9.1612637825       25.9183084567
  H        10.5085823925       21.5585283980       25.4449561532
  H        19.4577355307       21.6600431242       25.0448742292
  H         1.5594292542       21.4570136719       25.8450380773
  H        10.1136984124       10.0290742863        9.3148014822
  H        19.0628515506       10.1305890125        8.9147195582
  H         1.1645452741        9.9275595602        9.7148834063
  H        10.1136984124       22.3248241756        9.2415311028
  H        19.0628515506       22.4263389018        8.8414491787
  H         1.1645452741       22.2233094495        9.6416130269
  H        10.1136984124       10.0290742863       18.1346002521
  H        19.0628515506       10.1305890125       17.7345183280
  H         1.1645452741        9.9275595602       18.5346821762
  H        10.1136984124       22.3248241756       18.0613298727
  H        19.0628515506       22.4263389018       17.6612479486
  H         1.1645452741       22.2233094495       18.4614117968
  H        10.1136984124       10.0290742863        0.4950027123
  H        19.0628515506       10.1305890125        0.0949207883
  H         1.1645452741        9.9275595602        0.8950846364
  H        10.1136984124       22.3248241756        0.4217323329
  H        19.0628515506       22.4263389018        0.0216504088
  H         1.1645452741       22.2233094495        0.8218142570
  H         0.9348307978        3.8954042053        7.6995804694
  H         9.8839839361        3.9969189315        7.2994985454
  H        18.8331370744        4.0984336576        6.8994166213
  H         0.9348307978       16.1911540946        7.6263100900
  H         9.8839839361       16.2926688208        7.2262281659
  H        18.8331370744       16.3941835470        6.8261462419
  H         0.9348307978        3.8954042053       16.5193792393
  H         9.8839839361        3.9969189315       16.1192973153
  H        18.8331370744        4.0984336576       15.7192153912
  H         0.9348307978       16.1911540946       16.4461088599
  H         9.8839839361       16.2926688208       16.0460269358
  H        18.8331370744       16.3941835470       15.6459450118
  H         0.9348307978        3.8954042053       25.3391780092
  H         9.8839839361        3.9969189315       24.9390960851
  H        18.8331370744        4.0984336576       24.5390141611
  H         0.9348307978       16.1911540946       25.2659076298
  H         9.8839839361       16.2926688208       24.8658257057
  H        18.8331370744       16.3941835470       24.4657437817
  C         8.7153452624        2.7505962623       -0.3066212779
  C        17.6644984007        2.8521109884       -0.7067032020
  C        26.6136515389        2.9536257146       -1.1067851261
  C         8.7153452624       15.0463461516       -0.3798916573
  C        17.6644984007       15.1478608777       -0.7799735814
  C        26.6136515389       15.2493756039       -1.1800555055
  C         8.7153452624        2.7505962623        8.5131774920
  C        17.6644984007        2.8521109884        8.1130955679
  C        26.6136515389        2.9536257146        7.7130136438
  C         8.7153452624       15.0463461516        8.4399071126
  C        17.6644984007       15.1478608777        8.0398251885
  C        26.6136515389       15.2493756039        7.6397432644
  C         8.7153452624        2.7505962623       17.3329762619
  C        17.6644984007        2.8521109884       16.9328943378
  C        26.6136515389        2.9536257146       16.5328124137
  C         8.7153452624       15.0463461516       17.2597058825
  C        17.6644984007       15.1478608777       16.8596239584
  C        26.6136515389       15.2493756039       16.4595420343
  C         4.2407697652        8.8477077794        4.2667071650
  C        13.1899229035        8.9492225056        3.8666252409
  C        22.1390760418        9.0507372318        3.4665433168
  C         4.2407697652       21.1434576687        4.1934367856
  C        13.1899229035       21.2449723949        3.7933548615
  C        22.1390760418       21.3464871211        3.3932729374
  C         4.2407697652        8.8477077794       13.0865059349
  C        13.1899229035        8.9492225056       12.6864240108
  C        22.1390760418        9.0507372318       12.2863420867
  C         4.2407697652       21.1434576687       13.0132355555