     864
 i =        0, time =        0.000, E =       -82.7400857847
 Pb         0.0001434831       -0.0000545944        0.0000239033
 Pb         0.0000523739       -0.0000516463        0.0001048898
 Pb         0.0000063192       -0.0000505915        0.0000668426
 Pb        -0.0001056279       -0.0000851414       -0.0000526427
 Pb        -0.0000792044        0.0000713433       -0.0000656186
 Pb        -0.0000091721        0.0001504296       -0.0000448292
 Pb        -0.0000257320        0.0001229431       -0.0000464289
 Pb         0.0000599960       -0.0000236392        0.0000957497
 Pb         0.0000066480        0.0000281529       -0.0000854119
 Pb        -0.0000468551       -0.0000166639        0.0000709374
 Pb        -0.0000041218        0.0001333904        0.0000065549
 Pb         0.0001504202        0.0000450881        0.0000256018
 Pb        -0.0000006558       -0.0001076037        0.0000861603
 Pb        -0.0000185039        0.0000312829        0.0000312506
 Pb         0.0000481676        0.0000023453       -0.0000120460
 Pb        -0.0000435892        0.0000671391        0.0000394511
 Pb         0.0000492402       -0.0000081691        0.0001568863
 Pb        -0.0000784270        0.0000019973       -0.0000284135
 Pb         0.0001144549        0.0000025464       -0.0000388925
 Pb        -0.0002007604       -0.0000184412        0.0000148139
 Pb        -0.0000734462        0.0000599790       -0.0000439430
 Pb         0.0001154044        0.0000749496        0.0000998247
 Pb         0.0000443709       -0.0001123338        0.0000387859
 Pb         0.0000312464        0.0000049901        0.0000050698
 Pb        -0.0001187205       -0.0000164648        0.0000480793
 Pb        -0.0000893431        0.0000033644       -0.0000257314
 Pb        -0.0000014634        0.0000952707        0.0000714891
 Pb        -0.0000455227        0.0000446271        0.0000779206
 Pb         0.0001573012        0.0000842866        0.0000921361
 Pb         0.0000307845       -0.0000693154       -0.0000514452
 Pb         0.0001455060        0.0000529532       -0.0000470355
 Pb        -0.0000870590       -0.0000809731        0.0000146353
 Pb        -0.0001225390        0.0000616438       -0.0000315031
 Pb        -0.0000296103        0.0001325423        0.0000417863
 Pb         0.0000069067       -0.0000222099       -0.0000008698
 Pb        -0.0001050904       -0.0000039523        0.0000125499
 Pb         0.0000188312        0.0000096153       -0.0001164442
 Pb        -0.0000328823       -0.0000795322       -0.0000390974
 Pb        -0.0000359151       -0.0000348744       -0.0000280116
 Pb         0.0000250769       -0.0000468693       -0.0000047864
 Pb        -0.0001176431       -0.0001229725       -0.0000036237
 Pb        -0.0000148196       -0.0000386285       -0.0000705797
 Pb         0.0000503289        0.0000188242       -0.0001501490
 Pb         0.0000405636        0.0001087197        0.0000015006
 Pb        -0.0001091548       -0.0000192795       -0.0000262079
 Pb         0.0000527003       -0.0000371193        0.0000258657
 Pb         0.0000476519       -0.0000045941       -0.0000018057
 Pb         0.0000895889       -0.0000759443        0.0000869942
 Pb         0.0000445657        0.0001553402        0.0000766658
 Pb         0.0000101284        0.0000080153        0.0000183371
 Pb        -0.0001103480       -0.0000215670       -0.0001245395
 Pb        -0.0000567084       -0.0000705973       -0.0000139917
 Pb         0.0000969967       -0.0000159724       -0.0000386618
 Pb         0.0001385048       -0.0000351557        0.0001011737
 Pb         0.0000214816       -0.0000097427        0.0001044780
 Pb         0.0000284993       -0.0000344027       -0.0000260830
 Pb        -0.0000316811        0.0000508894        0.0000820149
 Pb         0.0000412880       -0.0000815955        0.0000114605
 Pb        -0.0000088632        0.0000125633       -0.0000264676
 Pb         0.0000797529       -0.0000606960        0.0000602038
 Pb        -0.0000647798        0.0000677929       -0.0001003137
 Pb         0.0000133700       -0.0000631927        0.0000999211
 Pb        -0.0000502008        0.0000556598        0.0000945397
 Pb         0.0000966307        0.0000526259        0.0001207188
 Pb         0.0000429547        0.0000168685        0.0000147371
 Pb         0.0000789567        0.0000213090       -0.0001721556
 Pb         0.0000588523        0.0000693002        0.0001674155
 Pb        -0.0000014393       -0.0000697783       -0.0000372501
 Pb         0.0000504158       -0.0001317587        0.0000501739
 Pb        -0.0000438020        0.0001044387       -0.0000583547
 Pb        -0.0000588898       -0.0000459835       -0.0000336126
 Pb        -0.0000540453       -0.0001374261       -0.0000265486
  I        -0.0000876577       -0.0001409033        0.0001759005
  I        -0.0000524120        0.0000072778       -0.0001368698
  I         0.0000402455       -0.0000299850       -0.0001102541
  I         0.0000219200        0.0001933736       -0.0000507043
  I        -0.0000437129        0.0000806546        0.0001850899
  I        -0.0001793307        0.0000380376       -0.0000929825
  I        -0.0000097415       -0.0001667003       -0.0000024872
  I        -0.0000540604        0.0001101016        0.0000821408
  I        -0.0000929358       -0.0000388565       -0.0000488547
  I        -0.0000330238        0.0000453601        0.0000930644
  I        -0.0000072022        0.0001489280       -0.0000137200
  I         0.0000839778       -0.0000758290        0.0000585746
  I         0.0001640975        0.0001050902       -0.0000983500
  I        -0.0000208739        0.0000543111       -0.0000235208
  I        -0.0000587917       -0.0000033634       -0.0000990870
  I         0.0000495054        0.0000143821        0.0000079905
  I        -0.0000303359        0.0000019524       -0.0001848533
  I        -0.0000277592        0.0000618502       -0.0000887419
  I        -0.0000948523        0.0000196375        0.0001270840
  I         0.0000392786        0.0000215810       -0.0000195614
  I         0.0000788083        0.0000453085       -0.0001384643
  I         0.0000418413        0.0000666258       -0.0000821980
  I        -0.0000023131        0.0000566875        0.0000008692
  I         0.0000034601       -0.0000896175        0.0000192150
  I        -0.0001000566       -0.0000813732       -0.0000397921
  I         0.0001074089       -0.0000757844       -0.0000348067
  I         0.0000287602       -0.0001049511       -0.0000343197
  I         0.0000422807       -0.0000354428       -0.0000078889
  I         0.0002657907        0.0000891061        0.0000047676
  I        -0.0001562307        0.0000482111        0.0001400280
  I         0.0000979088       -0.0001956149        0.0001324761
  I        -0.0001469342        0.0000949887       -0.0000143134
  I        -0.0000114491        0.0000031168        0.0000761748
  I         0.0001180564       -0.0000442349        0.0001082656
  I         0.0001062005       -0.0001262877       -0.0000459075
  I         0.0001384273        0.0001290814        0.0000742138
  I        -0.0002551801       -0.0000646321       -0.0000009461
  I         0.0000412741       -0.0000219831        0.0000931906
  I        -0.0002082964        0.0001034679       -0.0002038173
  I         0.0000810462       -0.0000182637       -0.0001339877
  I         0.0000043311       -0.0000980215       -0.0000314069
  I         0.0000722382        0.0000793207        0.0000249251
  I         0.0000001301        0.0000644816       -0.0001590001
  I         0.0001386234       -0.0000856659        0.0000312331
  I         0.0000429023       -0.0000492093        0.0000605369
  I        -0.0000059458       -0.0000940536        0.0000423167
  I         0.0000161047       -0.0000924121       -0.0000167455
  I         0.0000475748        0.0001711059       -0.0000645584
  I        -0.0000740507        0.0000246803       -0.0000564764
  I         0.0001151302       -0.0000453993        0.0001126864
  I        -0.0000871997       -0.0001356674       -0.0001042250
  I         0.0000490906       -0.0000295525        0.0000206569
  I         0.0001075283       -0.0001392870       -0.0000987980
  I        -0.0000410452       -0.0001092261        0.0000663978
  I        -0.0000983242        0.0001358847        0.0000159772
  I        -0.0000058807       -0.0000340455       -0.0000014859
  I         0.0001903872        0.0000994910       -0.0001000143
  I        -0.0000270982        0.0000970760        0.0000915020
  I        -0.0000185804        0.0000189965       -0.0000166857
  I        -0.0000890425       -0.0000510643        0.0000906282
  I        -0.0000150484        0.0000602634       -0.0000026938
  I         0.0000563854        0.0001457288        0.0000153116
  I        -0.0000068536        0.0000235437        0.0000271005
  I         0.0001606942        0.0000648366        0.0000817471
  I         0.0000617254        0.0000198587        0.0001999818
  I        -0.0000187351        0.0000414135       -0.0000435871
  I         0.0001646449        0.0000502695        0.0000048299
  I         0.0000720265       -0.0000166036       -0.0001041569
  I        -0.0001409059       -0.0000501771       -0.0000639378
  I        -0.0000772084        0.0000077644       -0.0000339930
  I         0.0000070662        0.0000141590        0.0000340438
  I        -0.0001473411       -0.0000724609       -0.0000668698
  I         0.0000598106       -0.0000391904        0.0000947097
  I         0.0000146704       -0.0000599329       -0.0000149229
  I         0.0000936577        0.0001500888       -0.0001956632
  I         0.0001032076        0.0000645777        0.0000205330
  I        -0.0000427203       -0.0000928276       -0.0000241508
  I        -0.0001067927       -0.0001328816       -0.0000478535
  I        -0.0000469287       -0.0001138183        0.0001632289
  I        -0.0000427772       -0.0001947007        0.0001267638
  I         0.0000056634        0.0001324049       -0.0000740337
  I        -0.0000610994       -0.0001272581       -0.0000014616
  I         0.0000089135       -0.0002403819       -0.0000271553
  I         0.0000546263       -0.0000967535        0.0000168915
  I         0.0002283318        0.0000053609        0.0000829130
  I        -0.0000538004        0.0000846744        0.0001079539
  I         0.0000051855        0.0000718460       -0.0000752720
  I        -0.0000970885        0.0000907379        0.0000527739
  I        -0.0001212355       -0.0000168395       -0.0001000313
  I        -0.0001126383       -0.0001024107       -0.0001335580
  I         0.0001138503       -0.0000013334       -0.0000037854
  I         0.0000164445       -0.0000118239        0.0000189599
  I        -0.0000414364        0.0000148875       -0.0001088048
  I        -0.0001036891       -0.0000681750        0.0000001856
  I         0.0000430464       -0.0000504118       -0.0001045399
  I        -0.0001368025        0.0000054470        0.0001169426
  I        -0.0000449033        0.0002616196       -0.0000096354
  I        -0.0000157270       -0.0000446666        0.0000953895
  I         0.0001316340        0.0000838374       -0.0000967438
  I        -0.0000943477       -0.0001518048       -0.0000108596
  I         0.0001953505        0.0000266992        0.0001264739
  I         0.0000143987        0.0000992061        0.0000073003
  I        -0.0000676860        0.0000783143       -0.0000975384
  I        -0.0000424014        0.0000754538        0.0000272168
  I        -0.0000646697        0.0000687198       -0.0000619623
  I         0.0001139935       -0.0000000839       -0.0000279395
  I         0.0000348921        0.0000110511       -0.0000297488
  I        -0.0001509773       -0.0000704597       -0.0000403198
  I         0.0000448875        0.0000405482       -0.0000448842
  I        -0.0000814968        0.0001145049        0.0000357698
  I         0.0003710064       -0.0000923941       -0.0000174428
  I         0.0001360047       -0.0000664312        0.0001262608
  I         0.0001166924        0.0000575560        0.0000343618
  I        -0.0000201026        0.0000240600        0.0001063294
  I         0.0001288963        0.0001297199       -0.0001145987
  I        -0.0000263643        0.0001042395        0.0000041112
  I        -0.0000916769        0.0000200226        0.0000536699
  I         0.0000315874        0.0000764470       -0.0002217335
  I        -0.0002039976        0.0000283738        0.0001598142
  I        -0.0000282298        0.0000047189       -0.0001206701
  I         0.0001740244        0.0000476191       -0.0000685208
  I         0.0000049299       -0.0002094681        0.0001462616
  I         0.0000690425       -0.0000034030        0.0002230548
  I        -0.0000256857        0.0000461684       -0.0000724965
  I         0.0000197617       -0.0001475592       -0.0001104820
  I         0.0000869088       -0.0000378357        0.0001617454
  I        -0.0001089656        0.0000035561       -0.0002641275
  I        -0.0002242064        0.0000352102       -0.0000112459
  I        -0.0001383693       -0.0001334189        0.0000975530
  I         0.0000114351       -0.0001780213        0.0001841901
  I        -0.0000072372       -0.0000670380        0.0000308996
  I        -0.0000009695        0.0001258796        0.0000820468
  I        -0.0001266915       -0.0000175035       -0.0000944251
  I         0.0001744704        0.0000424917       -0.0001018104
  I        -0.0001385182        0.0001156053        0.0000837293
  I        -0.0000366186       -0.0000570021       -0.0001437078
  I        -0.0000837006        0.0000163675       -0.0000342132
  I        -0.0000346464       -0.0000825618        0.0000499954
  I         0.0000130864        0.0000822228       -0.0000554266
  I         0.0000185752       -0.0000898360        0.0000899896
  I        -0.0000753523        0.0001246853        0.0000274785
  I         0.0000569401        0.0000656401       -0.0000147490
  I        -0.0001255042        0.0001276750        0.0000184132
  I        -0.0000171436        0.0000320040       -0.0000560701
  I         0.0001188164       -0.0000331179       -0.0001306516
  I        -0.0000716585        0.0000093253       -0.0000622989
  I         0.0001606537        0.0000148855        0.0000757938
  I        -0.0000641303        0.0000496360        0.0001308906
  I         0.0000231659        0.0000011536        0.0000700897
  I         0.0000823682       -0.0000656192        0.0000777133
  I         0.0000060093        0.0000458878       -0.0000806495
  I        -0.0000381452        0.0000286570        0.0000460781
  I        -0.0001995421        0.0000023114        0.0000202529
  I         0.0001854876       -0.0000502018       -0.0000498087
  I        -0.0000461078       -0.0000545739       -0.0000797149
  I        -0.0000171756       -0.0000615791       -0.0000153569
  I        -0.0000376382        0.0000654591       -0.0000101983
  I         0.0000414844        0.0000510494        0.0000223301
  I         0.0001237104       -0.0000410769       -0.0000191131
  I         0.0001104108       -0.0000119159        0.0000646025
  I        -0.0000143505       -0.0000596464        0.0001354703
  I         0.0000921482        0.0000053757       -0.0000762417
  I         0.0001805956       -0.0000932439        0.0000747699
  I         0.0000695079        0.0000758821        0.0000237894
  I        -0.0001158091        0.0000937534       -0.0000098680
  I        -0.0000995822        0.0000268972       -0.0000464708
  I         0.0000297741       -0.0000192569        0.0000397151
  I        -0.0000952203       -0.0000063460       -0.0001353388
  I        -0.0001313066        0.0000986450        0.0000007231
  I        -0.0000015563        0.0000768590       -0.0000001706
  I         0.0000191370       -0.0000126943       -0.0000438995
  I        -0.0001076450        0.0000460730       -0.0000023253
  I        -0.0001174181       -0.0001844828       -0.0001186454
  I         0.0000472394       -0.0001577892        0.0000234546
  I        -0.0000741264       -0.0000365856        0.0000710376
  I         0.0000209216        0.0000610191        0.0001618713
  I         0.0001510092        0.0000386161       -0.0000720505
  I        -0.0000218818       -0.0000604565        0.0001549346
  I         0.0000192551        0.0001335937        0.0000324343
  I        -0.0000011841        0.0001146568        0.0000311239
  I        -0.0000293696        0.0000476879        0.0001922158
  I         0.0000120814        0.0000533416       -0.0000065132
  I        -0.0000373261       -0.0000701848       -0.0000575130
  I         0.0001428354       -0.0000629769       -0.0001919991
  I         0.0001623027        0.0000532367        0.0000341054
  I        -0.0000347891       -0.0000529919        0.0000196507
  I         0.0000360760        0.0000619921        0.0001166115
  I         0.0000673735        0.0000280046       -0.0000292903
  I        -0.0000823334        0.0000643935        0.0001400836
  I         0.0001059725       -0.0000548875       -0.0001121276
  I        -0.0000639525        0.0001740020       -0.0000373918
  I        -0.0000917676        0.0001222354       -0.0000742743
  I        -0.0001934191       -0.0000993672       -0.0000168051
  I        -0.0000072038       -0.0000600740       -0.0000412030
  I         0.0000262343       -0.0000482602       -0.0001076506
  I        -0.0000439516        0.0000077936        0.0000080261
  I         0.0001134047       -0.0001458992        0.0000150093
  I        -0.0000444467        0.0002004371        0.0000850544
  I        -0.0000197931       -0.0000483791        0.0001396474
  I        -0.0000217920       -0.0000345438       -0.0001072806
  I        -0.0001272665        0.0000532867       -0.0000139111
  I         0.0000054944       -0.0000514203       -0.0000508190
  I         0.0001397220       -0.0000500057        0.0001235992
  I         0.0000310067       -0.0000501688       -0.0000688135
  I         0.0000969488       -0.0000511370        0.0000971826
  I        -0.0000948320       -0.0000482695       -0.0000266279
  I        -0.0000967542       -0.0000099034       -0.0000223718
  I         0.0000907373       -0.0000761085       -0.0000542586
  I         0.0000112856        0.0001159918       -0.0000217359
  I        -0.0000374837       -0.0000849191       -0.0000301896
  I        -0.0001146478       -0.0000305129       -0.0001666346
  I        -0.0000792882       -0.0001119216       -0.0000890646
  I         0.0000072448        0.0000680857        0.0000123414
  I        -0.0001543688       -0.0000090694       -0.0000409456
  I         0.0002626366       -0.0000590588       -0.0000491273
  I        -0.0000471772        0.0000502620       -0.0000079982
  H         0.0027754160        0.0005220963        0.0016277859
  H        -0.0016794120       -0.0007346809       -0.0006032792
  H        -0.0015596993        0.0020676061        0.0007626023
  H        -0.0013255432        0.0007208417       -0.0018284718
  H        -0.0004679957       -0.0000950701        0.0004268143
  H        -0.0005149518        0.0012168998        0.0003471986
  C        -0.0002857477       -0.0002574460       -0.0000317679
  N         0.0000362723       -0.0000621470        0.0001989653
  H         0.0003087506        0.0003190113        0.0000640771
  H         0.0009930781        0.0005657087       -0.0016277750
  H         0.0000852394        0.0014575310       -0.0001685384
  H         0.0007991358       -0.0001277106        0.0010822404
  H        -0.0010901266       -0.0015097569        0.0004117205
  H        -0.0003218941       -0.0005610772       -0.0003941478
  C         0.0000760791        0.0001189644       -0.0000951696
  N        -0.0004340730       -0.0004521976       -0.0000571757
  H         0.0001039230       -0.0009933734       -0.0023915986
  H         0.0001460508        0.0000752441        0.0001569974
  H        -0.0008015644       -0.0004583396       -0.0006964082
  H        -0.0002305413        0.0011881439        0.0012046824
  H        -0.0004975762        0.0009738129        0.0009267307
  H         0.0000601808       -0.0000278986        0.0003783551
  C         0.0000365078        0.0001192370       -0.0001266992
  N         0.0001872957       -0.0000720754        0.0001407596
  H         0.0006999212       -0.0005179985        0.0002818596
  H         0.0016147920        0.0021142359       -0.0001107750
  H        -0.0012173434        0.0007079273       -0.0003066718
  H        -0.0006208670       -0.0006518859       -0.0022182706
  H        -0.0005249470        0.0001517707       -0.0013435296
  H        -0.0000782230        0.0015386348       -0.0019247165
  C        -0.0006934616        0.0002495695       -0.0000855475
  N         0.0001397753       -0.0001015214       -0.0000562820
  H        -0.0018386231       -0.0001250497        0.0016421308
  H        -0.0005075823       -0.0011136667       -0.0007274913
  H         0.0021371067        0.0003077117        0.0006740138
  H        -0.0010511677        0.0011260627        0.0000371379
  H        -0.0008503006        0.0017089381        0.0016111258
  H        -0.0001239924       -0.0010814108        0.0019458677
  C        -0.0005026053       -0.0000254640        0.0000522900
  N        -0.0001362772       -0.0001266288       -0.0002741564
  H         0.0009912274       -0.0004353432       -0.0005679044
  H         0.0012958768        0.0007612095        0.0019374685
  H         0.0007629406       -0.0004756154       -0.0000619594
  H        -0.0005005122       -0.0012952836        0.0006950159
  H         0.0002943459       -0.0002042497        0.0010490943
  H        -0.0012701853       -0.0007473777       -0.0024971298
  C         0.0000490426       -0.0001347055        0.0004435924
  N        -0.0000150744       -0.0002135664       -0.0000219126
  H        -0.0009768371        0.0006037123        0.0008900185
  H         0.0006302909       -0.0001846161       -0.0000461378
  H        -0.0011250216        0.0000141944        0.0000064224
  H        -0.0012235663       -0.0016100552       -0.0027277207
  H         0.0010945595        0.0009879626        0.0002623756
  H        -0.0001106824       -0.0017267574       -0.0015818992
  C        -0.0005821324       -0.0003924215        0.0001819115
  N         0.0000237488        0.0003872363        0.0000089794
  H         0.0013524480       -0.0003356127        0.0003606410
  H        -0.0011892048       -0.0026382458       -0.0009579405
  H        -0.0002059444        0.0001292670        0.0010005184
  H         0.0010522536        0.0007905484       -0.0010629712
  H         0.0024420227       -0.0015978528        0.0008299814
  H        -0.0008145470        0.0004710036       -0.0011655959
  C         0.0000117382       -0.0001475168       -0.0006794401
  N        -0.0001970972        0.0000462151        0.0001105999
  H         0.0001589729       -0.0015234317        0.0013333212
  H        -0.0010777655        0.0008264553        0.0009114542
  H        -0.0004692147       -0.0010145885        0.0013988698
  H        -0.0011823300       -0.0010958541        0.0012342254
  H        -0.0012202642        0.0009069716        0.0017487174
  H         0.0014118114       -0.0016786433        0.0003211447
  C        -0.0004119748        0.0001457822       -0.0001836703
  N        -0.0001496605        0.0001449108       -0.0002866765
  H         0.0017544100        0.0002972183        0.0023571989
  H        -0.0013384306       -0.0010681119       -0.0000998450
  H         0.0003726620        0.0025542351       -0.0009357343
  H        -0.0005300058        0.0020157393        0.0005117716
  H         0.0003196080        0.0010116856        0.0021154522
  H        -0.0013667944       -0.0007648633       -0.0004204906
  C        -0.0001862876        0.0001423766        0.0001901085
  N        -0.0004169973       -0.0000583995        0.0003447759
  H         0.0012935334        0.0000198403       -0.0008174613
  H        -0.0021536946        0.0005468274       -0.0006058944
  H        -0.0024400692        0.0000031232        0.0004355697
  H         0.0000015078        0.0007208253       -0.0004712934
  H        -0.0012141065        0.0006226293        0.0001767820
  H        -0.0000639372       -0.0009695651        0.0011790685
  C         0.0004521694        0.0003228882        0.0002138629
  N         0.0000631665       -0.0002886656        0.0002416230
  H         0.0013709918       -0.0001876319       -0.0006318663
  H         0.0006323322        0.0006555385       -0.0013619504
  H         0.0001185745        0.0009063377       -0.0004958666
  H        -0.0013530087        0.0002619228        0.0017819835
  H        -0.0010384978       -0.0000813464        0.0007651501
  H        -0.0002032789       -0.0013666361       -0.0004047835
  C         0.0001467221       -0.0000472029       -0.0001041341
  N         0.0002127412        0.0000961708        0.0002145512
  H        -0.0004990930       -0.0019872402       -0.0000468854
  H         0.0003833180        0.0001976487        0.0007384148
  H        -0.0007788862        0.0005994516       -0.0005792195
  H         0.0019720236        0.0006883039        0.0007691009
  H        -0.0013711140        0.0016398895        0.0021432890
  H         0.0000751109        0.0003148608        0.0000216569
  C        -0.0004580517        0.0005956173       -0.0003415494
  N        -0.0006142130       -0.0003020283        0.0000989418
  H        -0.0013986040        0.0005634627       -0.0006741445
  H         0.0002992621        0.0013889996       -0.0002104750
  H         0.0002456481        0.0003614997        0.0001758611
  H        -0.0007414507        0.0006881724       -0.0001105445
  H        -0.0012641832        0.0006319390        0.0007021333
  H        -0.0005920423       -0.0015315521        0.0001118713
  C         0.0001398556        0.0000601998        0.0006791832
  N         0.0000191353       -0.0002295157        0.0002318519
  H         0.0009742935       -0.0001476156       -0.0015245350
  H         0.0001314849        0.0005800078        0.0000332192
  H         0.0004799763        0.0014168354       -0.0005222731
  H         0.0012550707        0.0007654336       -0.0022939886
  H        -0.0001383512        0.0005368990       -0.0001165344
  H        -0.0009735018       -0.0016643497       -0.0003950311
  C        -0.0006288474        0.0001413173       -0.0000207199
  N         0.0002494698       -0.0002563437       -0.0001983812
  H         0.0009307026        0.0007168990        0.0007285622
  H         0.0002047946       -0.0000547838        0.0019866799
  H         0.0007278320       -0.0004642661        0.0005715515
  H        -0.0021300977       -0.0004046680        0.0003278854
  H        -0.0007044704       -0.0002580130        0.0013805021
  H        -0.0006516221       -0.0017502222       -0.0002764823
  C        -0.0001200339       -0.0005149744       -0.0002868136
  N        -0.0001096928        0.0001234838       -0.0000119372
  H        -0.0014823042        0.0019480530       -0.0001166354
  H         0.0003202971        0.0006443216       -0.0021230291
  H        -0.0000291122       -0.0008334035       -0.0004423631
  H         0.0004647947        0.0005585127        0.0013508652
  H         0.0003633479        0.0018446177       -0.0016588133
  H        -0.0007080687       -0.0006229923       -0.0016089117
  C         0.0001403711        0.0000751490        0.0003381539
  N        -0.0000632995       -0.0004720836        0.0001178053
  H        -0.0003477859       -0.0012914952       -0.0006371198
  H         0.0002140283       -0.0000087701       -0.0009820190
  H        -0.0016876193        0.0000417411        0.0022298573
  H        -0.0014188467       -0.0008378514       -0.0009901592
  H         0.0003897667       -0.0005680711       -0.0002885653
  H         0.0012323038       -0.0000920126       -0.0005081679
  C         0.0001842889       -0.0001715481       -0.0002140658
  N         0.0003156711       -0.0001008249        0.0003494072
  H         0.0001881382        0.0001715639        0.0000054277
  H         0.0005772552        0.0010840755       -0.0013823944
  H        -0.0005422139       -0.0011966121        0.0018602656
  H        -0.0008104998       -0.0001008302       -0.0004001470
  H         0.0004511993       -0.0002426648        0.0011078106
  H         0.0008096008       -0.0028877093       -0.0001472829
  C         0.0000129318        0.0001729841       -0.0000617588
  N        -0.0002264502       -0.0003126423        0.0000352725
  H         0.0000027304        0.0004392900       -0.0011923721
  H        -0.0002103677       -0.0012114931       -0.0019952610
  H         0.0006692006        0.0010821989        0.0000546528
  H        -0.0015329390        0.0000989932       -0.0000476132
  H        -0.0000531125       -0.0000016063       -0.0008841164
  H         0.0005612471       -0.0000570693       -0.0008240577
  C         0.0000536307       -0.0001462595       -0.0002070827
  N        -0.0000845401        0.0003147534        0.0002189108
  H        -0.0001722626        0.0000747565        0.0011063856
  H         0.0004078940        0.0003923961       -0.0010244435
  H         0.0010686203        0.0010461221       -0.0027138625
  H         0.0022735925        0.0011133936        0.0001645830
  H        -0.0007687793       -0.0000452584       -0.0008622264
  H        -0.0014639728       -0.0003515353       -0.0001297858
  C        -0.0000783733        0.0002733335       -0.0002536810
  N        -0.0002499774       -0.0006399979       -0.0000852407
  H        -0.0010352541       -0.0017890086        0.0015938850
  H        -0.0009706053       -0.0004864925       -0.0006752824
  H        -0.0014807408        0.0001150871       -0.0013527830
  H         0.0008399317       -0.0005958355        0.0005884066