     864
 i =        0, time =        0.000, E =       -82.7400857847
 Pb         4.5140000000        0.0000000000        0.0000000000
 Pb        13.5430000000        0.0000000000        0.0000000000
 Pb        22.5720000000        0.0000000000        0.0000000000
 Pb         4.5140000000       12.7720000000        0.0000000000
 Pb        13.5430000000       12.7720000000        0.0000000000
 Pb        22.5720000000       12.7720000000        0.0000000000
 Pb         4.5140000000        0.0000000000        8.4930000000
 Pb        13.5430000000        0.0000000000        8.4930000000
 Pb        22.5720000000        0.0000000000        8.4930000000
 Pb         4.5140000000       12.7720000000        8.4930000000
 Pb        13.5430000000       12.7720000000        8.4930000000
 Pb        22.5720000000       12.7720000000        8.4930000000
 Pb         4.5140000000        0.0000000000       16.9860000000
 Pb        13.5430000000        0.0000000000       16.9860000000
 Pb        22.5720000000        0.0000000000       16.9860000000
 Pb         4.5140000000       12.7720000000       16.9860000000
 Pb        13.5430000000       12.7720000000       16.9860000000
 Pb        22.5720000000       12.7720000000       16.9860000000
 Pb         0.0000000000        0.0000000000        4.2470000000
 Pb         9.0290000000        0.0000000000        4.2470000000
 Pb        18.0580000000        0.0000000000        4.2470000000
 Pb         0.0000000000       12.7720000000        4.2470000000
 Pb         9.0290000000       12.7720000000        4.2470000000
 Pb        18.0580000000       12.7720000000        4.2470000000
 Pb         0.0000000000        0.0000000000       12.7400000000
 Pb         9.0290000000        0.0000000000       12.7400000000
 Pb        18.0580000000        0.0000000000       12.7400000000
 Pb         0.0000000000       12.7720000000       12.7400000000
 Pb         9.0290000000       12.7720000000       12.7400000000
 Pb        18.0580000000       12.7720000000       12.7400000000
 Pb         0.0000000000        0.0000000000       21.2330000000
 Pb         9.0290000000        0.0000000000       21.2330000000
 Pb        18.0580000000        0.0000000000       21.2330000000
 Pb         0.0000000000       12.7720000000       21.2330000000
 Pb         9.0290000000       12.7720000000       21.2330000000
 Pb        18.0580000000       12.7720000000       21.2330000000
 Pb         4.5140000000        6.3860000000        0.0000000000
 Pb        13.5430000000        6.3860000000        0.0000000000
 Pb        22.5720000000        6.3860000000        0.0000000000
 Pb         4.5140000000       19.1580000000        0.0000000000
 Pb        13.5430000000       19.1580000000        0.0000000000
 Pb        22.5720000000       19.1580000000        0.0000000000
 Pb         4.5140000000        6.3860000000        8.4930000000
 Pb        13.5430000000        6.3860000000        8.4930000000
 Pb        22.5720000000        6.3860000000        8.4930000000
 Pb         4.5140000000       19.1580000000        8.4930000000
 Pb        13.5430000000       19.1580000000        8.4930000000
 Pb        22.5720000000       19.1580000000        8.4930000000
 Pb         4.5140000000        6.3860000000       16.9860000000
 Pb        13.5430000000        6.3860000000       16.9860000000
 Pb        22.5720000000        6.3860000000       16.9860000000
 Pb         4.5140000000       19.1580000000       16.9860000000
 Pb        13.5430000000       19.1580000000       16.9860000000
 Pb        22.5720000000       19.1580000000       16.9860000000
 Pb         0.0000000000        6.3860000000        4.2470000000
 Pb         9.0290000000        6.3860000000        4.2470000000
 Pb        18.0580000000        6.3860000000        4.2470000000
 Pb         0.0000000000       19.1580000000        4.2470000000
 Pb         9.0290000000       19.1580000000        4.2470000000
 Pb        18.0580000000       19.1580000000        4.2470000000
 Pb         0.0000000000        6.3860000000       12.7400000000
 Pb         9.0290000000        6.3860000000       12.7400000000
 Pb        18.0580000000        6.3860000000       12.7400000000
 Pb         0.0000000000       19.1580000000       12.7400000000
 Pb         9.0290000000       19.1580000000       12.7400000000
 Pb        18.0580000000       19.1580000000       12.7400000000
 Pb         0.0000000000        6.3860000000       21.2330000000
 Pb         9.0290000000        6.3860000000       21.2330000000
 Pb        18.0580000000        6.3860000000       21.2330000000
 Pb         0.0000000000       19.1580000000       21.2330000000
 Pb         9.0290000000       19.1580000000       21.2330000000
 Pb        18.0580000000       19.1580000000       21.2330000000
  I         1.6410000000        0.2530000000        1.4660000000
  I        10.6700000000        0.2530000000        1.4660000000
  I        19.6990000000        0.2530000000        1.4660000000
  I         1.6410000000       13.0250000000        1.4660000000
  I        10.6700000000       13.0250000000        1.4660000000
  I        19.6990000000       13.0250000000        1.4660000000
  I         1.6410000000        0.2530000000        9.9590000000
  I        10.6700000000        0.2530000000        9.9590000000
  I        19.6990000000        0.2530000000        9.9590000000
  I         1.6410000000       13.0250000000        9.9590000000
  I        10.6700000000       13.0250000000        9.9590000000
  I        19.6990000000       13.0250000000        9.9590000000
  I         1.6410000000        0.2530000000       18.4520000000
  I        10.6700000000        0.2530000000       18.4520000000
  I        19.6990000000        0.2530000000       18.4520000000
  I         1.6410000000       13.0250000000       18.4520000000
  I        10.6700000000       13.0250000000       18.4520000000
  I        19.6990000000       13.0250000000       18.4520000000
  I         4.3290000000        3.1930000000        7.9540000000
  I        13.3580000000        3.1930000000        7.9540000000
  I        22.3870000000        3.1930000000        7.9540000000
  I         4.3290000000       15.9650000000        7.9540000000
  I        13.3580000000       15.9650000000        7.9540000000
  I        22.3870000000       15.9650000000        7.9540000000
  I         4.3290000000        3.1930000000       16.4470000000
  I        13.3580000000        3.1930000000       16.4470000000
  I        22.3870000000        3.1930000000       16.4470000000
  I         4.3290000000       15.9650000000       16.4470000000
  I        13.3580000000       15.9650000000       16.4470000000
  I        22.3870000000       15.9650000000       16.4470000000
  I         4.3290000000        3.1930000000       24.9400000000
  I        13.3580000000        3.1930000000       24.9400000000
  I        22.3870000000        3.1930000000       24.9400000000
  I         4.3290000000       15.9650000000       24.9400000000
  I        13.3580000000       15.9650000000       24.9400000000
  I        22.3870000000       15.9650000000       24.9400000000
  I         2.8730000000       12.5190000000        5.7120000000
  I        11.9020000000       12.5190000000        5.7120000000
  I        20.9310000000       12.5190000000        5.7120000000
  I         2.8730000000       25.2910000000        5.7120000000
  I        11.9020000000       25.2910000000        5.7120000000
  I        20.9310000000       25.2910000000        5.7120000000
  I         2.8730000000       12.5190000000       14.2050000000
  I        11.9020000000       12.5190000000       14.2050000000
  I        20.9310000000       12.5190000000       14.2050000000
  I         2.8730000000       25.2910000000       14.2050000000
  I        11.9020000000       25.2910000000       14.2050000000
  I        20.9310000000       25.2910000000       14.2050000000
  I         2.8730000000       12.5190000000       22.6980000000
  I        11.9020000000       12.5190000000       22.6980000000
  I        20.9310000000       12.5190000000       22.6980000000
  I         2.8730000000       25.2910000000       22.6980000000
  I        11.9020000000       25.2910000000       22.6980000000
  I        20.9310000000       25.2910000000       22.6980000000
  I         7.3880000000        6.6380000000        7.0270000000
  I        16.4160000000        6.6380000000        7.0270000000
  I        25.4450000000        6.6380000000        7.0270000000
  I         7.3880000000       19.4100000000        7.0270000000
  I        16.4160000000       19.4100000000        7.0270000000
  I        25.4450000000       19.4100000000        7.0270000000
  I         7.3880000000        6.6380000000       15.5200000000
  I        16.4160000000        6.6380000000       15.5200000000
  I        25.4450000000        6.6380000000       15.5200000000
  I         7.3880000000       19.4100000000       15.5200000000
  I        16.4160000000       19.4100000000       15.5200000000
  I        25.4450000000       19.4100000000       15.5200000000
  I         7.3880000000        6.6380000000       24.0130000000
  I        16.4160000000        6.6380000000       24.0130000000
  I        25.4450000000        6.6380000000       24.0130000000
  I         7.3880000000       19.4100000000       24.0130000000
  I        16.4160000000       19.4100000000       24.0130000000
  I        25.4450000000       19.4100000000       24.0130000000
  I         6.1560000000        6.1340000000        2.7810000000
  I        15.1840000000        6.1340000000        2.7810000000
  I        24.2130000000        6.1340000000        2.7810000000
  I         6.1560000000       18.9070000000        2.7810000000
  I        15.1840000000       18.9070000000        2.7810000000
  I        24.2130000000       18.9070000000        2.7810000000
  I         6.1560000000        6.1340000000       11.2740000000
  I        15.1840000000        6.1340000000       11.2740000000
  I        24.2130000000        6.1340000000       11.2740000000
  I         6.1560000000       18.9070000000       11.2740000000
  I        15.1840000000       18.9070000000       11.2740000000
  I        24.2130000000       18.9070000000       11.2740000000
  I         6.1560000000        6.1340000000       19.7670000000
  I        15.1840000000        6.1340000000       19.7670000000
  I        24.2130000000        6.1340000000       19.7670000000
  I         6.1560000000       18.9070000000       19.7670000000
  I        15.1840000000       18.9070000000       19.7670000000
  I        24.2130000000       18.9070000000       19.7670000000
  I         7.3880000000       12.5190000000        7.0270000000
  I        16.4160000000       12.5190000000        7.0270000000
  I        25.4450000000       12.5190000000        7.0270000000
  I         7.3880000000       25.2910000000        7.0270000000
  I        16.4160000000       25.2910000000        7.0270000000
  I        25.4450000000       25.2910000000        7.0270000000
  I         7.3880000000       12.5190000000       15.5200000000
  I        16.4160000000       12.5190000000       15.5200000000
  I        25.4450000000       12.5190000000       15.5200000000
  I         7.3880000000       25.2910000000       15.5200000000
  I        16.4160000000       25.2910000000       15.5200000000
  I        25.4450000000       25.2910000000       15.5200000000
  I         7.3880000000       12.5190000000       24.0140000000
  I        16.4160000000       12.5190000000       24.0140000000
  I        25.4450000000       12.5190000000       24.0140000000
  I         7.3880000000       25.2910000000       24.0140000000
  I        16.4160000000       25.2910000000       24.0140000000
  I        25.4450000000       25.2910000000       24.0140000000
  I         6.1560000000        0.2530000000        2.7810000000
  I        15.1840000000        0.2530000000        2.7810000000
  I        24.2130000000        0.2530000000        2.7810000000
  I         6.1560000000       13.0250000000        2.7810000000
  I        15.1840000000       13.0250000000        2.7810000000
  I        24.2130000000       13.0250000000        2.7810000000
  I         6.1560000000        0.2530000000       11.2740000000
  I        15.1840000000        0.2530000000       11.2740000000
  I        24.2130000000        0.2530000000       11.2740000000
  I         6.1560000000       13.0250000000       11.2740000000
  I        15.1840000000       13.0250000000       11.2740000000
  I        24.2130000000       13.0250000000       11.2740000000
  I         6.1560000000        0.2530000000       19.7670000000
  I        15.1840000000        0.2530000000       19.7670000000
  I        24.2130000000        0.2530000000       19.7670000000
  I         6.1560000000       13.0250000000       19.7670000000
  I        15.1840000000       13.0250000000       19.7670000000
  I        24.2130000000       13.0250000000       19.7670000000
  I         1.6410000000        6.1340000000        1.4660000000
  I        10.6700000000        6.1340000000        1.4660000000
  I        19.6990000000        6.1340000000        1.4660000000
  I         1.6410000000       18.9070000000        1.4660000000
  I        10.6700000000       18.9070000000        1.4660000000
  I        19.6990000000       18.9070000000        1.4660000000
  I         1.6410000000        6.1340000000        9.9590000000
  I        10.6700000000        6.1340000000        9.9590000000
  I        19.6990000000        6.1340000000        9.9590000000
  I         1.6410000000       18.9070000000        9.9590000000
  I        10.6700000000       18.9070000000        9.9590000000
  I        19.6990000000       18.9070000000        9.9590000000
  I         1.6410000000        6.1340000000       18.4520000000
  I        10.6700000000        6.1340000000       18.4520000000
  I        19.6990000000        6.1340000000       18.4520000000
  I         1.6410000000       18.9070000000       18.4520000000
  I        10.6700000000       18.9070000000       18.4520000000
  I        19.6990000000       18.9070000000       18.4520000000
  I         2.8730000000        6.6380000000        5.7120000000
  I        11.9020000000        6.6380000000        5.7120000000
  I        20.9310000000        6.6380000000        5.7120000000
  I         2.8730000000       19.4100000000        5.7120000000
  I        11.9020000000       19.4100000000        5.7120000000
  I        20.9310000000       19.4100000000        5.7120000000
  I         2.8730000000        6.6380000000       14.2050000000
  I        11.9020000000        6.6380000000       14.2050000000
  I        20.9310000000        6.6380000000       14.2050000000
  I         2.8730000000       19.4100000000       14.2050000000
  I        11.9020000000       19.4100000000       14.2050000000
  I        20.9310000000       19.4100000000       14.2050000000
  I         2.8730000000        6.6380000000       22.6980000000
  I        11.9020000000        6.6380000000       22.6980000000
  I        20.9310000000        6.6380000000       22.6980000000
  I         2.8730000000       19.4100000000       22.6980000000
  I        11.9020000000       19.4100000000       22.6980000000
  I        20.9310000000       19.4100000000       22.6980000000
  I         0.1850000000        9.5790000000        3.7070000000
  I         9.2140000000        9.5790000000        3.7070000000
  I        18.2430000000        9.5790000000        3.7070000000
  I         0.1850000000       22.3510000000        3.7070000000
  I         9.2140000000       22.3510000000        3.7070000000
  I        18.2430000000       22.3510000000        3.7070000000
  I         0.1850000000        9.5790000000       12.2010000000
  I         9.2140000000        9.5790000000       12.2010000000
  I        18.2430000000        9.5790000000       12.2010000000
  I         0.1850000000       22.3510000000       12.2010000000
  I         9.2140000000       22.3510000000       12.2010000000
  I        18.2430000000       22.3510000000       12.2010000000
  I         0.1850000000        9.5790000000       20.6940000000
  I         9.2140000000        9.5790000000       20.6940000000
  I        18.2430000000        9.5790000000       20.6940000000
  I         0.1850000000       22.3510000000       20.6940000000
  I         9.2140000000       22.3510000000       20.6940000000
  I        18.2430000000       22.3510000000       20.6940000000
  I         4.7000000000        9.5790000000        0.5390000000
  I        13.7290000000        9.5790000000        0.5390000000
  I        22.7570000000        9.5790000000        0.5390000000
  I         4.7000000000       22.3510000000        0.5390000000
  I        13.7290000000       22.3510000000        0.5390000000
  I        22.7570000000       22.3510000000        0.5390000000
  I         4.7000000000        9.5790000000        9.0320000000
  I        13.7290000000        9.5790000000        9.0320000000
  I        22.7570000000        9.5790000000        9.0320000000
  I         4.7000000000       22.3510000000        9.0320000000
  I        13.7290000000       22.3510000000        9.0320000000
  I        22.7570000000       22.3510000000        9.0320000000
  I         4.7000000000        9.5790000000       17.5250000000
  I        13.7290000000        9.5790000000       17.5250000000
  I        22.7570000000        9.5790000000       17.5250000000
  I         4.7000000000       22.3510000000       17.5250000000
  I        13.7290000000       22.3510000000       17.5250000000
  I        22.7570000000       22.3510000000       17.5250000000
  I         8.8430000000        3.1930000000        4.7860000000
  I        17.8720000000        3.1930000000        4.7860000000
  I        26.9010000000        3.1930000000        4.7860000000
  I         8.8430000000       15.9650000000        4.7860000000
  I        17.8720000000       15.9650000000        4.7860000000
  I        26.9010000000       15.9650000000        4.7860000000
  I         8.8430000000        3.1930000000       13.2790000000
  I        17.8720000000        3.1930000000       13.2790000000
  I        26.9010000000        3.1930000000       13.2790000000
  I         8.8430000000       15.9650000000       13.2790000000
  I        17.8720000000       15.9650000000       13.2790000000
  I        26.9010000000       15.9650000000       13.2790000000
  I         8.8430000000        3.1930000000       21.7720000000
  I        17.8720000000        3.1930000000       21.7720000000
  I        26.9010000000        3.1930000000       21.7720000000
  I         8.8430000000       15.9650000000       21.7720000000
  I        17.8720000000       15.9650000000       21.7720000000
  I        26.9010000000       15.9650000000       21.7720000000
  H         3.1350000000        2.2920000000        3.9810000000
  H         5.5490000000        2.3490000000        4.1310000000
  H         4.8710000000        3.1940000000        5.4400000000
  H         3.8750000000        3.1930000000        2.6130000000
  H         3.1340000000        4.0940000000        3.9810000000
  H         5.5480000000        4.0390000000        4.1310000000
  C         3.6910000000        3.1930000000        3.6950000000
  N         4.9950000000        3.1940000000        4.4010000000
  H        12.1640000000        2.2920000000        3.9810000000
  H        14.5770000000        2.3490000000        4.1310000000
  H        13.9000000000        3.1940000000        5.4400000000
  H        12.9040000000        3.1930000000        2.6130000000
  H        12.1620000000        4.0940000000        3.9810000000
  H        14.5760000000        4.0390000000        4.1310000000
  C        12.7200000000        3.1930000000        3.6950000000
  N        14.0240000000        3.1940000000        4.4010000000
  H        21.1920000000        2.2920000000        3.9810000000
  H        23.6060000000        2.3490000000        4.1310000000
  H        22.9290000000        3.1940000000        5.4400000000
  H        21.9330000000        3.1930000000        2.6130000000
  H        21.1910000000        4.0940000000        3.9810000000
  H        23.6050000000        4.0390000000        4.1310000000
  C        21.7490000000        3.1930000000        3.6950000000
  N        23.0530000000        3.1940000000        4.4010000000
  H         3.1350000000       15.0640000000        3.9810000000
  H         5.5490000000       15.1210000000        4.1310000000
  H         4.8710000000       15.9660000000        5.4400000000
  H         3.8750000000       15.9650000000        2.6130000000
  H         3.1340000000       16.8660000000        3.9810000000
  H         5.5480000000       16.8120000000        4.1310000000
  C         3.6910000000       15.9650000000        3.6950000000
  N         4.9950000000       15.9660000000        4.4010000000
  H        12.1640000000       15.0640000000        3.9810000000
  H        14.5770000000       15.1210000000        4.1310000000
  H        13.9000000000       15.9660000000        5.4400000000
  H        12.9040000000       15.9650000000        2.6130000000
  H        12.1620000000       16.8660000000        3.9810000000
  H        14.5760000000       16.8120000000        4.1310000000
  C        12.7200000000       15.9650000000        3.6950000000
  N        14.0240000000       15.9660000000        4.4010000000
  H        21.1920000000       15.0640000000        3.9810000000
  H        23.6060000000       15.1210000000        4.1310000000
  H        22.9290000000       15.9660000000        5.4400000000
  H        21.9330000000       15.9650000000        2.6130000000
  H        21.1910000000       16.8660000000        3.9810000000
  H        23.6050000000       16.8120000000        4.1310000000
  C        21.7490000000       15.9650000000        3.6950000000
  N        23.0530000000       15.9660000000        4.4010000000
  H         3.1350000000        2.2920000000       12.4740000000
  H         5.5490000000        2.3490000000       12.6250000000
  H         4.8710000000        3.1940000000       13.9330000000
  H         3.8750000000        3.1930000000       11.1060000000
  H         3.1340000000        4.0940000000       12.4740000000
  H         5.5480000000        4.0390000000       12.6240000000
  C         3.6910000000        3.1930000000       12.1880000000
  N         4.9950000000        3.1940000000       12.8940000000
  H        12.1640000000        2.2920000000       12.4740000000
  H        14.5770000000        2.3490000000       12.6250000000
  H        13.9000000000        3.1940000000       13.9330000000
  H        12.9040000000        3.1930000000       11.1060000000
  H        12.1620000000        4.0940000000       12.4740000000
  H        14.5760000000        4.0390000000       12.6240000000
  C        12.7200000000        3.1930000000       12.1880000000
  N        14.0240000000        3.1940000000       12.8940000000
  H        21.1920000000        2.2920000000       12.4740000000
  H        23.6060000000        2.3490000000       12.6250000000
  H        22.9290000000        3.1940000000       13.9330000000
  H        21.9330000000        3.1930000000       11.1060000000
  H        21.1910000000        4.0940000000       12.4740000000
  H        23.6050000000        4.0390000000       12.6240000000
  C        21.7490000000        3.1930000000       12.1880000000
  N        23.0530000000        3.1940000000       12.8940000000
  H         3.1350000000       15.0640000000       12.4740000000
  H         5.5490000000       15.1210000000       12.6250000000
  H         4.8710000000       15.9660000000       13.9330000000
  H         3.8750000000       15.9650000000       11.1060000000
  H         3.1340000000       16.8660000000       12.4740000000
  H         5.5480000000       16.8120000000       12.6240000000
  C         3.6910000000       15.9650000000       12.1880000000
  N         4.9950000000       15.9660000000       12.8940000000
  H        12.1640000000       15.0640000000       12.4740000000
  H        14.5770000000       15.1210000000       12.6250000000
  H        13.9000000000       15.9660000000       13.9330000000
  H        12.9040000000       15.9650000000       11.1060000000
  H        12.1620000000       16.8660000000       12.4740000000
  H        14.5760000000       16.8120000000       12.6240000000
  C        12.7200000000       15.9650000000       12.1880000000
  N        14.0240000000       15.9660000000       12.8940000000
  H        21.1920000000       15.0640000000       12.4740000000
  H        23.6060000000       15.1210000000       12.6250000000
  H        22.9290000000       15.9660000000       13.9330000000
  H        21.9330000000       15.9650000000       11.1060000000
  H        21.1910000000       16.8660000000       12.4740000000
  H        23.6050000000       16.8120000000       12.6240000000
  C        21.7490000000       15.9650000000       12.1880000000
  N        23.0530000000       15.9660000000       12.8940000000
  H         3.1350000000        2.2920000000       20.9670000000
  H         5.5490000000        2.3490000000       21.1180000000
  H         4.8710000000        3.1940000000       22.4260000000
  H         3.8750000000        3.1930000000       19.5990000000
  H         3.1340000000        4.0940000000       20.9670000000
  H         5.5480000000        4.0390000000       21.1170000000
  C         3.6910000000        3.1930000000       20.6820000000
  N         4.9950000000        3.1940000000       21.3880000000
  H        12.1640000000        2.2920000000       20.9670000000
  H        14.5770000000        2.3490000000       21.1180000000
  H        13.9000000000        3.1940000000       22.4260000000
  H        12.9040000000        3.1930000000       19.5990000000
  H        12.1620000000        4.0940000000       20.9670000000
  H        14.5760000000        4.0390000000       21.1170000000
  C        12.7200000000        3.1930000000       20.6820000000
  N        14.0240000000        3.1940000000       21.3880000000
  H        21.1920000000        2.2920000000       20.9670000000
  H        23.6060000000        2.3490000000       21.1180000000
  H        22.9290000000        3.1940000000       22.4260000000
  H        21.9330000000        3.1930000000       19.5990000000
  H        21.1910000000        4.0940000000       20.9670000000
  H        23.6050000000        4.0390000000       21.1170000000
  C        21.7490000000        3.1930000000       20.6820000000
  N        23.0530000000        3.1940000000       21.3880000000
  H         3.1350000000       15.0640000000       20.9670000000
  H         5.5490000000       15.1210000000       21.1180000000
  H         4.8710000000       15.9660000000       22.4260000000
  H         3.8750000000       15.9650000000       19.5990000000
  H         3.1340000000       16.8660000000       20.9670000000
  H         5.5480000000       16.8120000000       21.1170000000
  C         3.6910000000       15.9650000000       20.6820000000
  N         4.9950000000       15.9660000000       21.3880000000
  H        12.1640000000       15.0640000000       20.9670000000
  H        14.5770000000       15.1210000000       21.1180000000
  H        13.9000000000       15.9660000000       22.4260000000
  H        12.9040000000       15.9650000000       19.5990000000
  H        12.1620000000       16.8660000000       20.9670000000
  H        14.5760000000       16.8120000000       21.1170000000
  C        12.7200000000       15.9650000000       20.6820000000
  N        14.0240000000       15.9660000000       21.3880000000
  H        21.1920000000       15.0640000000       20.9670000000
  H        23.6060000000       15.1210000000       21.1180000000
  H        22.9290000000       15.9660000000       22.4260000000
  H        21.9330000000       15.9650000000       19.5990000000
  H        21.1910000000       16.8660000000       20.9670000000
  H        23.6050000000       16.8120000000       21.1170000000
  C        21.7490000000       15.9650000000       20.6820000000
  N        23.0530000000       15.9660000000       21.3880000000
  H         1.3800000000       10.4810000000        8.2270000000
  H        26.0520000000       10.4230000000        8.3780000000
  H        26.0530000000        8.7330000000        8.3780000000
  H         1.3810000000        8.6790000000        8.2270000000
  H         0.6390000000        9.5790000000        6.8600000000
  H        26.7300000000        9.5780000000        9.6860000000
  C         0.8230000000        9.5790000000        7.9420000000
  N        26.6060000000        9.5780000000        8.6480000000
  H        10.4080000000       10.4810000000        8.2270000000
  H         7.9950000000       10.4230000000        8.3780000000
  H         7.9960000000        8.7330000000        8.3780000000
  H        10.4100000000        8.6790000000        8.2270000000
  H         9.6680000000        9.5790000000        6.8600000000
  H         8.6720000000        9.5780000000        9.6860000000
  C         9.8520000000        9.5790000000        7.9420000000
  N         8.5480000000        9.5780000000        8.6480000000
  H        19.4370000000       10.4810000000        8.2270000000
  H        17.0230000000       10.4230000000        8.3780000000
  H        17.0240000000        8.7330000000        8.3780000000
  H        19.4380000000        8.6790000000        8.2270000000
  H        18.6970000000        9.5790000000        6.8600000000
  H        17.7010000000        9.5780000000        9.6860000000
  C        18.8810000000        9.5790000000        7.9420000000
  N        17.5770000000        9.5780000000        8.6480000000
  H         1.3800000000       23.2530000000        8.2270000000
  H        26.0520000000       23.1950000000        8.3780000000
  H        26.0530000000       21.5050000000        8.3780000000
  H         1.3810000000       21.4510000000        8.2270000000