 *******************************************************************************
 *                       GENERAL UTILITY LATTICE PROGRAM                       *
 *                     Julian Gale, NRI, Curtin University                     *
 *                                Version 3.4                                  *
 *                                                                             *
 *                      Copyright (c) 2000-2007                                *
 *                                                                             *
 *         Please cite                                                         *
 *                                                                             *
 *    "The General Utility Lattice Program (GULP)"                             *
 *     Molecular Simulation, 29(5) pp.291-341 (2003)                           *
 *     J. D. Gale, A. L. Rohl                                                  *
 *                                                                             *
 *         in all publications arising from your use of GULP                   *
 *******************************************************************************
 
 
 This version was compiled for linux_x86_64 on Nov 13 2008
 
License checkout successful
 
********************************************************************************
*                       GENERAL UTILITY LATTICE PROGRAM  v3.4                  *
*                                 Julian Gale                                  *
*                      Nanochemistry Research Institute                        *
*             Curtin University of Technology, Western Australia               *
********************************************************************************
*                    Accelrys Materials Studio 4.4 Release                     *
********************************************************************************
*  single       - perform a single point run                                   *
*  md           - perform molecular dynamics run                               *
*  conp         - constant pressure calculation                                *
*  qok          - running with non charge neutral cell is OK                   *
*  preserve_Q   - preserve coordinate line charges over species input          *
*  nomodcoord   - do not mod input coordinates                                 *
*  spatial      - use spatial decomposition algorithm                          *
*  conjugate    - use conjugate gradients minimiser                            *
********************************************************************************
* GULP calculation from Materials Studio for tridymite_NPT                     *
********************************************************************************


  Job Started  at 15:23.46 13th July       2011                               

  Number of CPUs =     6


  Total number of configurations input =   1

********************************************************************************
*  Input for Configuration =   1                                               *
********************************************************************************

  Formula = Si48O96                                                     

  Number of irreducible atoms/shells =     240


  Total number atoms/shells =     240

  Dimensionality = 3               :  Bulk   



  Cartesian lattice vectors (Angstroms) :

       30.060000    0.000000    0.000000
       -5.010000    8.677575    0.000000
        0.000000    0.000000    8.180000

  Cell parameters (Angstroms/Degrees):

  a =      30.0600    alpha =  90.0000
  b =      10.0200    beta  =  90.0000
  c =       8.1800    gamma = 120.0000

  Initial cell volume =        2133.735747 Angs**3

  Temperature of configuration =  298.0     K 

  Pressure of configuration =         0.000 GPa 

  Fractional coordinates of asymmetric unit :

--------------------------------------------------------------------------------
   No.  Atomic       x           y          z         Charge      Occupancy
        Label      (Frac)      (Frac)     (Frac)        (e)         (Frac)  
--------------------------------------------------------------------------------
      1 Si1   c    0.067870 *  0.320373 *  0.443336 *    4.0000    1.000000    
      2 Si1   c    0.051343 *  0.824680 *  0.447516 *    4.0000    1.000000    
      3 Si1   c    0.230175 *  0.316983 *  0.430510 *    4.0000    1.000000    
      4 Si1   c    0.221584 *  0.836643 *  0.423149 *    4.0000    1.000000    
      5 Si1   c    0.101436 *  0.167265 *  0.937490 *    4.0000    1.000000    
      6 Si1   c    0.117712 *  0.679182 *  0.939192 *    4.0000    1.000000    
      7 Si1   c    0.273728 *  0.191542 *  0.936390 *    4.0000    1.000000    
      8 Si1   c    0.279442 *  0.679116 *  0.929114 *    4.0000    1.000000    
      9 Si1   c    0.120862 *  0.154362 *  0.563035 *    4.0000    1.000000    
     10 Si1   c    0.111623 *  0.667621 *  0.566867 *    4.0000    1.000000    
     11 Si1   c    0.288836 *  0.165880 *  0.564684 *    4.0000    1.000000    
     12 Si1   c    0.271349 *  0.646623 *  0.556726 *    4.0000    1.000000    
     13 Si1   c    0.048470 *  0.339339 *  0.071482 *    4.0000    1.000000    
     14 Si1   c    0.054125 *  0.824428 *  0.059177 *    4.0000    1.000000    
     15 Si1   c    0.215182 *  0.349546 *  0.062644 *    4.0000    1.000000    
     16 Si1   c    0.228121 *  0.859183 *  0.050221 *    4.0000    1.000000    
     17 O1    c    0.066013 *  0.362840 *  0.254529 *    0.8690    1.000000    
     18 O1    c    0.045562 *  0.810211 *  0.253109 *    0.8690    1.000000    
     19 O1    c    0.209783 *  0.295223 *  0.244085 *    0.8690    1.000000    
     20 O1    c    0.243486 *  0.872129 *  0.245982 *    0.8690    1.000000    
     21 O1    c    0.101471 *  0.140792 *  0.744768 *    0.8690    1.000000    
     22 O1    c    0.128900 *  0.701458 *  0.753774 *    0.8690    1.000000    
     23 O1    c    0.291714 *  0.193436 *  0.760424 *    0.8690    1.000000    
     24 O1    c    0.261225 *  0.611716 *  0.750352 *    0.8690    1.000000    
     25 O1    c    0.071936 * -0.003228 *  0.012476 *    0.8690    1.000000    
     26 O1    c    0.075056 *  0.510231 * -0.000862 *    0.8690    1.000000    
     27 O1    c    0.236992 *  0.018764 * -0.015783 *    0.8690    1.000000    
     28 O1    c    0.247701 *  0.533211 *  0.046126 *    0.8690    1.000000    
     29 O1    c   -0.013289 *  0.268044 *  0.065661 *    0.8690    1.000000    
     30 O1    c    0.001949 *  0.720910 * -0.039400 *    0.8690    1.000000    
     31 O1    c    0.159920 *  0.284695 * -0.015875 *    0.8690    1.000000    
     32 O1    c    0.170134 *  0.741425 *  0.047841 *    0.8690    1.000000    
     33 O1    c    0.068162 *  0.248409 * -0.031627 *    0.8690    1.000000    
     34 O1    c    0.100160 *  0.803324 * -0.005853 *    0.8690    1.000000    
     35 O1    c    0.241375 *  0.282294 * -0.055534 *    0.8690    1.000000    
     36 O1    c    0.259929 *  0.800204 * -0.054157 *    0.8690    1.000000    
     37 O1    c    0.098728 * -0.006396 *  0.473871 *    0.8690    1.000000    
     38 O1    c    0.085519 *  0.478351 *  0.550721 *    0.8690    1.000000    
     39 O1    c    0.248214 * -0.010059 *  0.526799 *    0.8690    1.000000    
     40 O1    c    0.258869 *  0.496898 *  0.454831 *    0.8690    1.000000    
     41 O1    c    0.012379 *  0.194571 *  0.507235 *    0.8690    1.000000    
     42 O1    c   -0.000732 *  0.794389 *  0.548662 *    0.8690    1.000000    
     43 O1    c    0.181405 *  0.223186 *  0.552192 *    0.8690    1.000000    
     44 O1    c    0.161644 *  0.770201 *  0.444814 *    0.8690    1.000000    
     45 O1    c    0.105298 *  0.255223 *  0.453383 *    0.8690    1.000000    
     46 O1    c    0.075659 *  0.725042 *  0.506692 *    0.8690    1.000000    
     47 O1    c    0.275404 *  0.280818 *  0.475176 *    0.8690    1.000000    
     48 O1    c    0.232972 *  0.705577 *  0.495403 *    0.8690    1.000000    
     49 Si1   c    0.399811 *  0.315675 *  0.444087 *    4.0000    1.000000    
     50 Si1   c    0.385373 *  0.818014 *  0.434618 *    4.0000    1.000000    
     51 Si1   c    0.560641 *  0.311742 *  0.436235 *    4.0000    1.000000    
     52 Si1   c    0.552488 *  0.819312 *  0.436194 *    4.0000    1.000000    
     53 Si1   c    0.432005 *  0.170889 *  0.934965 *    4.0000    1.000000    
     54 Si1   c    0.448806 *  0.673390 *  0.945132 *    4.0000    1.000000    
     55 Si1   c    0.605461 *  0.178295 *  0.933554 *    4.0000    1.000000    
     56 Si1   c    0.611228 *  0.654361 *  0.945266 *    4.0000    1.000000    
     57 Si1   c    0.452838 *  0.152164 *  0.578958 *    4.0000    1.000000    
     58 Si1   c    0.443273 *  0.654499 *  0.558809 *    4.0000    1.000000    
     59 Si1   c    0.614334 *  0.144597 *  0.566508 *    4.0000    1.000000    
     60 Si1   c    0.606938 *  0.648412 *  0.560015 *    4.0000    1.000000    
     61 Si1   c    0.383067 *  0.339804 *  0.076831 *    4.0000    1.000000    
     62 Si1   c    0.394259 *  0.844671 *  0.055882 *    4.0000    1.000000    
     63 Si1   c    0.544609 *  0.330939 *  0.068961 *    4.0000    1.000000    
     64 Si1   c    0.563544 *  0.850409 *  0.063613 *    4.0000    1.000000    
     65 O1    c    0.396254 *  0.293109 *  0.247130 *    0.8690    1.000000    
     66 O1    c    0.388980 *  0.781932 *  0.242304 *    0.8690    1.000000    
     67 O1    c    0.535895 *  0.278306 *  0.263316 *    0.8690    1.000000    
     68 O1    c    0.573966 *  0.884917 *  0.255287 *    0.8690    1.000000    
     69 O1    c    0.431308 *  0.101037 *  0.758804 *    0.8690    1.000000    
     70 O1    c    0.452968 *  0.644006 *  0.757180 *    0.8690    1.000000    
     71 O1    c    0.617260 *  0.203360 *  0.744868 *    0.8690    1.000000    
     72 O1    c    0.594594 *  0.614644 *  0.755071 *    0.8690    1.000000    
     73 O1    c    0.411877 *  0.025193 *  0.058858 *    0.8690    1.000000    
     74 O1    c    0.407667 *  0.516684 *  0.030058 *    0.8690    1.000000    
     75 O1    c    0.577217 *  0.010456 * -0.015434 *    0.8690    1.000000    
     76 O1    c    0.581764 *  0.511391 *  0.063021 *    0.8690    1.000000    
     77 O1    c    0.322577 *  0.273983 *  0.065675 *    0.8690    1.000000    
     78 O1    c    0.340382 *  0.765365 * -0.038345 *    0.8690    1.000000    
     79 O1    c    0.490572 *  0.293461 * -0.021969 *    0.8690    1.000000    
     80 O1    c    0.504581 *  0.735989 *  0.037456 *    0.8690    1.000000    
     81 O1    c    0.399864 *  0.255860 * -0.066059 *    0.8690    1.000000    
     82 O1    c    0.431902 *  0.800844 * -0.036847 *    0.8690    1.000000    
     83 O1    c    0.571888 *  0.254976 * -0.028742 *    0.8690    1.000000    
     84 O1    c    0.603077 *  0.795794 * -0.011339 *    0.8690    1.000000    
     85 O1    c    0.422814 * -0.001104 *  0.460862 *    0.8690    1.000000    
     86 O1    c    0.411417 *  0.487001 *  0.486893 *    0.8690    1.000000    
     87 O1    c    0.571144 * -0.039579 *  0.563443 *    0.8690    1.000000    
     88 O1    c    0.594630 *  0.493344 *  0.465620 *    0.8690    1.000000    
     89 O1    c    0.344294 *  0.201339 *  0.512378 *    0.8690    1.000000    
     90 O1    c    0.330608 *  0.766175 *  0.515099 *    0.8690    1.000000    
     91 O1    c    0.513100 *  0.225202 *  0.565707 *    0.8690    1.000000    
     92 O1    c    0.492838 *  0.753374 *  0.443052 *    0.8690    1.000000    
     93 O1    c    0.441753 *  0.279321 *  0.514626 *    0.8690    1.000000    
     94 O1    c    0.409039 *  0.728573 *  0.526057 *    0.8690    1.000000    
     95 O1    c    0.594492 *  0.230964 *  0.448373 *    0.8690    1.000000    
     96 O1    c    0.568015 *  0.692124 *  0.476847 *    0.8690    1.000000    
     97 Si1   c    0.726735 *  0.326980 *  0.442961 *    4.0000    1.000000    
     98 Si1   c    0.715459 *  0.824773 *  0.434645 *    4.0000    1.000000    
     99 Si1   c    0.898444 *  0.318313 *  0.432433 *    4.0000    1.000000    
    100 Si1   c    0.886544 *  0.827019 *  0.434092 *    4.0000    1.000000    
    101 Si1   c    0.767325 *  0.181080 *  0.934819 *    4.0000    1.000000    
    102 Si1   c    0.778063 *  0.692333 *  0.940356 *    4.0000    1.000000    
    103 Si1   c    0.939301 *  0.181707 *  0.939308 *    4.0000    1.000000    
    104 Si1   c    0.943947 *  0.662619 *  0.931691 *    4.0000    1.000000    
    105 Si1   c    0.785082 *  0.168424 *  0.557554 *    4.0000    1.000000    
    106 Si1   c    0.773496 *  0.666112 *  0.560221 *    4.0000    1.000000    
    107 Si1   c    0.957355 *  0.153844 *  0.570875 *    4.0000    1.000000    
    108 Si1   c    0.939996 *  0.653385 *  0.560635 *    4.0000    1.000000    
    109 Si1   c    0.715156 *  0.357983 *  0.067339 *    4.0000    1.000000    
    110 Si1   c    0.719849 *  0.848485 *  0.051097 *    4.0000    1.000000    
    111 Si1   c    0.880431 *  0.332191 *  0.059743 *    4.0000    1.000000    
    112 Si1   c    0.890689 *  0.843088 *  0.063105 *    4.0000    1.000000    
    113 O1    c    0.728432 *  0.378111 *  0.262377 *    0.8690    1.000000    
    114 O1    c    0.704107 *  0.824432 *  0.244400 *    0.8690    1.000000    
    115 O1    c    0.885759 *  0.298180 *  0.242517 *    0.8690    1.000000    
    116 O1    c    0.902404 *  0.867285 *  0.247696 *    0.8690    1.000000    
    117 O1    c    0.773319 *  0.183531 *  0.745289 *    0.8690    1.000000    
    118 O1    c    0.780607 *  0.700770 *  0.748424 *    0.8690    1.000000    
    119 O1    c    0.959376 *  0.198464 *  0.760698 *    0.8690    1.000000    
    120 O1    c    0.922951 *  0.620229 *  0.750909 *    0.8690    1.000000    
    121 O1    c    0.732278 *  0.016954 * -0.003139 *    0.8690    1.000000    
    122 O1    c    0.732643 *  0.522743 * -0.018384 *    0.8690    1.000000    
    123 O1    c    0.906007 *  0.010797 * -0.006448 *    0.8690    1.000000    
    124 O1    c    0.909417 *  0.514456 *  0.045826 *    0.8690    1.000000    
    125 O1    c    0.658265 *  0.262973 *  0.028767 *    0.8690    1.000000    
    126 O1    c    0.669611 *  0.708488 * -0.030790 *    0.8690    1.000000    
    127 O1    c    0.822062 *  0.253517 *  0.020423 *    0.8690    1.000000    
    128 O1    c    0.831805 *  0.727925 *  0.020881 *    0.8690    1.000000    
    129 O1    c    0.747298 *  0.294223 * -0.025519 *    0.8690    1.000000    
    130 O1    c    0.769931 *  0.826067 *  0.013303 *    0.8690    1.000000    
    131 O1    c    0.900863 *  0.253216 * -0.057919 *    0.8690    1.000000    
    132 O1    c    0.929516 *  0.791467 * -0.007508 *    0.8690    1.000000    
    133 O1    c    0.757376 * -0.013651 *  0.518000 *    0.8690    1.000000    
    134 O1    c    0.752888 *  0.481937 *  0.551066 *    0.8690    1.000000    
    135 O1    c    0.921522 * -0.022907 *  0.546540 *    0.8690    1.000000    
    136 O1    c    0.932735 *  0.498660 *  0.484634 *    0.8690    1.000000    
    137 O1    c    0.670243 *  0.186228 *  0.515798 *    0.8690    1.000000    
    138 O1    c    0.664519 *  0.788767 *  0.533603 *    0.8690    1.000000    
    139 O1    c    0.842597 *  0.221359 *  0.526390 *    0.8690    1.000000    
    140 O1    c    0.827498 *  0.772386 *  0.470856 *    0.8690    1.000000    
    141 O1    c    0.764114 *  0.257453 *  0.439607 *    0.8690    1.000000    
    142 O1    c    0.735471 *  0.703600 *  0.476038 *    0.8690    1.000000    
    143 O1    c    0.936982 *  0.253232 *  0.473284 *    0.8690    1.000000    
    144 O1    c    0.896842 *  0.688574 *  0.491509 *    0.8690    1.000000    
    145 O1    s    0.066013 *  0.362840 *  0.254529 *   -2.8690    1.000000    
    146 O1    s    0.045562 *  0.810211 *  0.253109 *   -2.8690    1.000000    
    147 O1    s    0.209783 *  0.295223 *  0.244085 *   -2.8690    1.000000    
    148 O1    s    0.243486 *  0.872129 *  0.245982 *   -2.8690    1.000000    
    149 O1    s    0.101471 *  0.140792 *  0.744768 *   -2.8690    1.000000    
    150 O1    s    0.128900 *  0.701458 *  0.753774 *   -2.8690    1.000000    
    151 O1    s    0.291714 *  0.193436 *  0.760424 *   -2.8690    1.000000    
    152 O1    s    0.261225 *  0.611716 *  0.750352 *   -2.8690    1.000000    
    153 O1    s    0.071936 * -0.003228 *  0.012476 *   -2.8690    1.000000    
    154 O1    s    0.075056 *  0.510231 * -0.000862 *   -2.8690    1.000000    
    155 O1    s    0.236992 *  0.018764 * -0.015783 *   -2.8690    1.000000    
    156 O1    s    0.247701 *  0.533211 *  0.046126 *   -2.8690    1.000000    
    157 O1    s   -0.013289 *  0.268044 *  0.065661 *   -2.8690    1.000000    
    158 O1    s    0.001949 *  0.720910 * -0.039400 *   -2.8690    1.000000    
    159 O1    s    0.159920 *  0.284695 * -0.015875 *   -2.8690    1.000000    
    160 O1    s    0.170134 *  0.741425 *  0.047841 *   -2.8690    1.000000    
    161 O1    s    0.068162 *  0.248409 * -0.031627 *   -2.8690    1.000000    
    162 O1    s    0.100160 *  0.803324 * -0.005853 *   -2.8690    1.000000    
    163 O1    s    0.241375 *  0.282294 * -0.055534 *   -2.8690    1.000000    
    164 O1    s    0.259929 *  0.800204 * -0.054157 *   -2.8690    1.000000    
    165 O1    s    0.098728 * -0.006396 *  0.473871 *   -2.8690    1.000000    
    166 O1    s    0.085519 *  0.478351 *  0.550721 *   -2.8690    1.000000    
    167 O1    s    0.248214 * -0.010059 *  0.526799 *   -2.8690    1.000000    
    168 O1    s    0.258869 *  0.496898 *  0.454831 *   -2.8690    1.000000    
    169 O1    s    0.012379 *  0.194571 *  0.507235 *   -2.8690    1.000000    
    170 O1    s   -0.000732 *  0.794389 *  0.548662 *   -2.8690    1.000000    
    171 O1    s    0.181405 *  0.223186 *  0.552192 *   -2.8690    1.000000    
    172 O1    s    0.161644 *  0.770201 *  0.444814 *   -2.8690    1.000000    
    173 O1    s    0.105298 *  0.255223 *  0.453383 *   -2.8690    1.000000    
    174 O1    s    0.075659 *  0.725042 *  0.506692 *   -2.8690    1.000000    
    175 O1    s    0.275404 *  0.280818 *  0.475176 *   -2.8690    1.000000    
    176 O1    s    0.232972 *  0.705577 *  0.495403 *   -2.8690    1.000000    
    177 O1    s    0.396254 *  0.293109 *  0.247130 *   -2.8690    1.000000    
    178 O1    s    0.388980 *  0.781932 *  0.242304 *   -2.8690    1.000000    
    179 O1    s    0.535895 *  0.278306 *  0.263316 *   -2.8690    1.000000    
    180 O1    s    0.573966 *  0.884917 *  0.255287 *   -2.8690    1.000000    
    181 O1    s    0.431308 *  0.101037 *  0.758804 *   -2.8690    1.000000    
    182 O1    s    0.452968 *  0.644006 *  0.757180 *   -2.8690    1.000000    
    183 O1    s    0.617260 *  0.203360 *  0.744868 *   -2.8690    1.000000    
    184 O1    s    0.594594 *  0.614644 *  0.755071 *   -2.8690    1.000000    
    185 O1    s    0.411877 *  0.025193 *  0.058858 *   -2.8690    1.000000    
    186 O1    s    0.407667 *  0.516684 *  0.030058 *   -2.8690    1.000000    
    187 O1    s    0.577217 *  0.010456 * -0.015434 *   -2.8690    1.000000    
    188 O1    s    0.581764 *  0.511391 *  0.063021 *   -2.8690    1.000000    
    189 O1    s    0.322577 *  0.273983 *  0.065675 *   -2.8690    1.000000    
    190 O1    s    0.340382 *  0.765365 * -0.038345 *   -2.8690    1.000000    
    191 O1    s    0.490572 *  0.293461 * -0.021969 *   -2.8690    1.000000    
    192 O1    s    0.504581 *  0.735989 *  0.037456 *   -2.8690    1.000000    
    193 O1    s    0.399864 *  0.255860 * -0.066059 *   -2.8690    1.000000    
    194 O1    s    0.431902 *  0.800844 * -0.036847 *   -2.8690    1.000000    
    195 O1    s    0.571888 *  0.254976 * -0.028742 *   -2.8690    1.000000    
    196 O1    s    0.603077 *  0.795794 * -0.011339 *   -2.8690    1.000000    
    197 O1    s    0.422814 * -0.001104 *  0.460862 *   -2.8690    1.000000    
    198 O1    s    0.411417 *  0.487001 *  0.486893 *   -2.8690    1.000000    
    199 O1    s    0.571144 * -0.039579 *  0.563443 *   -2.8690    1.000000    
    200 O1    s    0.594630 *  0.493344 *  0.465620 *   -2.8690    1.000000    
    201 O1    s    0.344294 *  0.201339 *  0.512378 *   -2.8690    1.000000    
    202 O1    s    0.330608 *  0.766175 *  0.515099 *   -2.8690    1.000000    
    203 O1    s    0.513100 *  0.225202 *  0.565707 *   -2.8690    1.000000    
    204 O1    s    0.492838 *  0.753374 *  0.443052 *   -2.8690    1.000000    
    205 O1    s    0.441753 *  0.279321 *  0.514626 *   -2.8690    1.000000    
    206 O1    s    0.409039 *  0.728573 *  0.526057 *   -2.8690    1.000000    
    207 O1    s    0.594492 *  0.230964 *  0.448373 *   -2.8690    1.000000    
    208 O1    s    0.568015 *  0.692124 *  0.476847 *   -2.8690    1.000000    
    209 O1    s    0.728432 *  0.378111 *  0.262377 *   -2.8690    1.000000    
    210 O1    s    0.704107 *  0.824432 *  0.244400 *   -2.8690    1.000000    
    211 O1    s    0.885759 *  0.298180 *  0.242517 *   -2.8690    1.000000    
    212 O1    s    0.902404 *  0.867285 *  0.247696 *   -2.8690    1.000000    
    213 O1    s    0.773319 *  0.183531 *  0.745289 *   -2.8690    1.000000    
    214 O1    s    0.780607 *  0.700770 *  0.748424 *   -2.8690    1.000000    
    215 O1    s    0.959376 *  0.198464 *  0.760698 *   -2.8690    1.000000    
    216 O1    s    0.922951 *  0.620229 *  0.750909 *   -2.8690    1.000000    
    217 O1    s    0.732278 *  0.016954 * -0.003139 *   -2.8690    1.000000    
    218 O1    s    0.732643 *  0.522743 * -0.018384 *   -2.8690    1.000000    
    219 O1    s    0.906007 *  0.010797 * -0.006448 *   -2.8690    1.000000    
    220 O1    s    0.909417 *  0.514456 *  0.045826 *   -2.8690    1.000000    
    221 O1    s    0.658265 *  0.262973 *  0.028767 *   -2.8690    1.000000    
    222 O1    s    0.669611 *  0.708488 * -0.030790 *   -2.8690    1.000000    
    223 O1    s    0.822062 *  0.253517 *  0.020423 *   -2.8690    1.000000    
    224 O1    s    0.831805 *  0.727925 *  0.020881 *   -2.8690    1.000000    
    225 O1    s    0.747298 *  0.294223 * -0.025519 *   -2.8690    1.000000    
    226 O1    s    0.769931 *  0.826067 *  0.013303 *   -2.8690    1.000000    
    227 O1    s    0.900863 *  0.253216 * -0.057919 *   -2.8690    1.000000    
    228 O1    s    0.929516 *  0.791467 * -0.007508 *   -2.8690    1.000000    
    229 O1    s    0.757376 * -0.013651 *  0.518000 *   -2.8690    1.000000    
    230 O1    s    0.752888 *  0.481937 *  0.551066 *   -2.8690    1.000000    
    231 O1    s    0.921522 * -0.022907 *  0.546540 *   -2.8690    1.000000    
    232 O1    s    0.932735 *  0.498660 *  0.484634 *   -2.8690    1.000000    
    233 O1    s    0.670243 *  0.186228 *  0.515798 *   -2.8690    1.000000    
    234 O1    s    0.664519 *  0.788767 *  0.533603 *   -2.8690    1.000000    
    235 O1    s    0.842597 *  0.221359 *  0.526390 *   -2.8690    1.000000    
    236 O1    s    0.827498 *  0.772386 *  0.470856 *   -2.8690    1.000000    
    237 O1    s    0.764114 *  0.257453 *  0.439607 *   -2.8690    1.000000    
    238 O1    s    0.735471 *  0.703600 *  0.476038 *   -2.8690    1.000000    
    239 O1    s    0.936982 *  0.253232 *  0.473284 *   -2.8690    1.000000    
    240 O1    s    0.896842 *  0.688574 *  0.491509 *   -2.8690    1.000000    
--------------------------------------------------------------------------------



********************************************************************************
*  General input information                                                   *
********************************************************************************

  Species output for all configurations : 

--------------------------------------------------------------------------------
  Species    Type    Atomic    Atomic    Charge       Radii (Angs)     Library
                     Number     Mass       (e)     Cova   Ionic  VDW   Symbol
--------------------------------------------------------------------------------
    O1       Core        8      16.00     0.8690   0.730  0.000  1.360 O_O2-    
    O1       Shell       8       0.00    -2.8690   0.730  0.000  1.360 O_O2-    
    Si1      Core       14      28.09     4.0000   1.200  0.000  2.100 Si       
--------------------------------------------------------------------------------


  Lattice summation method               =    Ewald
  Accuracy factor for lattice sums       =    8.000


  Time limit = Infinity

  Maximum range for interatomic potentials =    100000.000000 Angstroms

  General interatomic potentials :

--------------------------------------------------------------------------------
Atom  Types   Potential         A         B         C         D     Cutoffs(Ang)
  1     2                                                            Min    Max 
--------------------------------------------------------------------------------
Si1  c O1   s Buckingham    0.128E+04 0.321     10.7     0.00       0.000 10.000
O1   s O1   s Buckingham    0.228E+05 0.149     27.9     0.00       0.000 12.000
O1   c O1   s Spring (c-s)   74.9      0.00     0.00     0.00       0.000  0.600
--------------------------------------------------------------------------------

  General Three-body potentials :

  Harmonic form:

--------------------------------------------------------------------------------
Atom    Atom    Atom           Force Constants            Theta     Cutoffs  
  1       2       3     (eVrad**-2/eVrad**-3/eVrad**-4)   (deg)  1-2  1-3  2-3
--------------------------------------------------------------------------------
Si1   c O1    s O1    s  2.097        0.0000    0.0000   109.470 0.00 0.00 0.00
                                                                 1.90 1.90 3.50
--------------------------------------------------------------------------------

********************************************************************************
*  Output for configuration   1                                                *
********************************************************************************


  Components of energy : 

--------------------------------------------------------------------------------
  Interatomic potentials     =        1539.39563741 eV
  Three-body potentials      =           1.47190898 eV
  Monopole - monopole (real) =       -5632.91360559 eV
  Monopole - monopole (recip)=       -2034.35235369 eV
  Monopole - monopole (total)=       -7667.26595929 eV
--------------------------------------------------------------------------------
  Total lattice energy       =       -6126.39841290 eV
--------------------------------------------------------------------------------
  Total lattice energy       =         -591103.7963 kJ/(mole unit cells)
--------------------------------------------------------------------------------

  MSI Archive (version 3) open for Movie as tridymite_NPT_3D.arc                    


  Equations of motion will be integrated using the leapfrog Verlet algorithm.

  Shell masses are zero thus shell positions will be optimised each time step
  until the forces on the shells are less than .10000D-09 or for a maximum of 
   10 iterations.

  Shell positions to be extrapolated to order =    8


********************************************************************************
*  Molecular Dynamics                                                          *
********************************************************************************

  Isothermal/baric ensemble (NPT) to be used

  Friction for temperature bath =           0.005000
  Friction for pressure    bath =           0.005000

  No. of mobile ions        =                144

  No. of degrees of freedom =                429

  Time step                 =           0.001000 ps
  Equilibration time        =           0.200000 ps
  Production time           =           1.000000 ps
  Scaling time              =           0.200000 ps
  Scaling frequency         =           0.001000 ps
  Sampling frequency        =           0.100000 ps
  Write frequency           =           0.100000 ps
  Force start time          =           0.000000 ps


  Molecular dynamics equilibration :

  ** Time :            0.10000 ps :
     Properties:                   Instantaneous       Averaged
       Kinetic energy    (eV) =       5.521826          5.521826
       Potential energy  (eV) =   -6170.273787      -6170.273787
       Total energy      (eV) =   -6164.751961      -6164.751961
       Conserved quantity(eV) =   -6164.751886      -6164.751886
       Thermostat KE     (eV) =       0.000000
       Thermostat Integrl(eV) =       0.000067
       Barostat term     (eV) =       0.000007
       Temperature       (K)  =     298.732252        298.732252
       Pressure         (GPa) =       0.194706          0.194706
       Cell parameter : a (A) =      30.063057         30.063057
       Cell parameter : b (A) =      10.021321         10.021321
       Cell parameter : c (A) =       8.182066          8.182066
       Cell angle : alpha (o) =      90.001450         90.001450
       Cell angle : beta  (o) =      89.997838         89.997838
       Cell angle : gamma (o) =     119.999598        119.999598
       Cell volume :   (A**3) =    2134.781647       2134.781647
  ** Time :            0.20000 ps :
     Properties:                   Instantaneous       Averaged
       Kinetic energy    (eV) =       5.488700          5.505263
       Potential energy  (eV) =   -6170.466758      -6170.370272
       Total energy      (eV) =   -6164.978058      -6164.865009
       Conserved quantity(eV) =   -6164.978110      -6164.864998
       Thermostat KE     (eV) =       0.000000
       Thermostat Integrl(eV) =      -0.000098
       Barostat term     (eV) =       0.000046
       Temperature       (K)  =     296.940094        297.836173
       Pressure         (GPa) =      -0.057317          0.068635
       Cell parameter : a (A) =      30.059448         30.061253
       Cell parameter : b (A) =      10.021909         10.021615
       Cell parameter : c (A) =       8.187193          8.184630
       Cell angle : alpha (o) =      90.010066         90.005758
       Cell angle : beta  (o) =      90.004435         90.001136
       Cell angle : gamma (o) =     119.994907        119.997252
       Cell volume :   (A**3) =    2136.089335       2135.435491

  Average number of iterations to optimise shell positions : 10.00

  Molecular dynamics production :

  ** Time :            0.10000 ps :
     Properties:                   Instantaneous       Averaged
       Kinetic energy    (eV) =       5.395777          5.395777
       Potential energy  (eV) =   -6169.795320      -6169.795320
       Total energy      (eV) =   -6164.399543      -6164.399543
       Conserved quantity(eV) =   -6164.788552      -6164.788552
       Thermostat KE     (eV) =       0.001106
       Thermostat Integrl(eV) =      -0.440035
       Barostat term     (eV) =       0.049921
       Temperature       (K)  =     291.912931        291.912931
       Pressure         (GPa) =       0.284717          0.284717
       Cell parameter : a (A) =      30.224292         30.224292
       Cell parameter : b (A) =      10.075564         10.075564
       Cell parameter : c (A) =       8.169987          8.169987
       Cell angle : alpha (o) =      90.397649         90.397649
       Cell angle : beta  (o) =      90.325829         90.325829
       Cell angle : gamma (o) =     120.380955        120.380955
       Cell volume :   (A**3) =    2146.161399       2146.161399
  ** Time :            0.20000 ps :
     Properties:                   Instantaneous       Averaged
       Kinetic energy    (eV) =       5.956848          5.676312
       Potential energy  (eV) =   -6169.824294      -6169.809807
       Total energy      (eV) =   -6163.867447      -6164.133495
       Conserved quantity(eV) =   -6164.517961      -6164.653256
       Thermostat KE     (eV) =       0.022839
       Thermostat Integrl(eV) =      -0.855277
       Barostat term     (eV) =       0.181924
       Temperature       (K)  =     322.267022        307.089976
       Pressure         (GPa) =       0.143503          0.211648
       Cell parameter : a (A) =      30.420125         30.322209
       Cell parameter : b (A) =      10.088488         10.082026
       Cell parameter : c (A) =       8.267403          8.218695
       Cell angle : alpha (o) =      89.700022         90.048836
       Cell angle : beta  (o) =      90.456955         90.391392
       Cell angle : gamma (o) =     120.594868        120.487911
       Cell volume :   (A**3) =    2183.926381       2165.043890
  ** Time :            0.30000 ps :
     Properties:                   Instantaneous       Averaged
       Kinetic energy    (eV) =       5.549049          5.633891
       Potential energy  (eV) =   -6169.933094      -6169.850903
       Total energy      (eV) =   -6164.384045      -6164.217012
       Conserved quantity(eV) =   -6164.427652      -6164.578055
       Thermostat KE     (eV) =       0.020186
       Thermostat Integrl(eV) =      -0.134696
       Barostat term     (eV) =       0.070903
       Temperature       (K)  =     300.205009        304.794987
       Pressure         (GPa) =      -0.394061          0.012059
       Cell parameter : a (A) =      30.219975         30.288131
       Cell parameter : b (A) =      10.037979         10.067344
       Cell parameter : c (A) =       8.203695          8.213695
       Cell angle : alpha (o) =      89.243069         89.780247
       Cell angle : beta  (o) =      89.780320         90.187701
       Cell angle : gamma (o) =     120.280908        120.418910
       Cell volume :   (A**3) =    2148.692370       2159.593383
  ** Time :            0.40000 ps :
     Properties:                   Instantaneous       Averaged
       Kinetic energy    (eV) =       5.234909          5.534145
       Potential energy  (eV) =   -6170.225469      -6169.944544
       Total energy      (eV) =   -6164.990560      -6164.410399
       Conserved quantity(eV) =   -6164.119230      -6164.463349
       Thermostat KE     (eV) =       0.002164
       Thermostat Integrl(eV) =       0.798656
       Barostat term     (eV) =       0.070510
       Temperature       (K)  =     283.209923        299.398721
       Pressure         (GPa) =       0.095834          0.032991
       Cell parameter : a (A) =      30.218672         30.270766
       Cell parameter : b (A) =      10.066534         10.067141
       Cell parameter : c (A) =       8.254481          8.223892
       Cell angle : alpha (o) =      89.789450         89.782548
       Cell angle : beta  (o) =      90.014779         90.144471
       Cell angle : gamma (o) =     121.033842        120.572643
       Cell volume :   (A**3) =    2151.556522       2157.584168
  ** Time :            0.50000 ps :
     Properties:                   Instantaneous       Averaged
       Kinetic energy    (eV) =       5.216826          5.470682
       Potential energy  (eV) =   -6170.131619      -6169.981959
       Total energy      (eV) =   -6164.914793      -6164.511278
       Conserved quantity(eV) =   -6163.699687      -6164.310616
       Thermostat KE     (eV) =       0.000582
       Thermostat Integrl(eV) =       1.083025
       Barostat term     (eV) =       0.131499
       Temperature       (K)  =     282.231662        295.965309
       Pressure         (GPa) =      -0.384800         -0.050650
       Cell parameter : a (A) =      30.136835         30.243980
       Cell parameter : b (A) =      10.012532         10.056219
       Cell parameter : c (A) =       8.256060          8.230325
       Cell angle : alpha (o) =      90.249138         89.875866
       Cell angle : beta  (o) =      89.955804         90.106737
       Cell angle : gamma (o) =     119.958855        120.449886
       Cell volume :   (A**3) =    2158.342139       2157.735762
  ** Time :            0.60000 ps :
     Properties:                   Instantaneous       Averaged
       Kinetic energy    (eV) =       5.484710          5.473020
       Potential energy  (eV) =   -6170.512545      -6170.070390
       Total energy      (eV) =   -6165.027835      -6164.597371
       Conserved quantity(eV) =   -6163.420855      -6164.162323
       Thermostat KE     (eV) =       0.003024
       Thermostat Integrl(eV) =       1.568479
       Barostat term     (eV) =       0.035477
       Temperature       (K)  =     296.724234        296.091797
       Pressure         (GPa) =       0.555679          0.049955
       Cell parameter : a (A) =      29.923651         30.190592
       Cell parameter : b (A) =       9.973952         10.042508
       Cell parameter : c (A) =       8.212094          8.227287
       Cell angle : alpha (o) =      90.335650         89.952496
       Cell angle : beta  (o) =      89.536552         90.011707
       Cell angle : gamma (o) =     119.382318        120.271958
       Cell volume :   (A**3) =    2135.604309       2154.047187
  ** Time :            0.70000 ps :
     Properties:                   Instantaneous       Averaged
       Kinetic energy    (eV) =       5.644308          5.497489
       Potential energy  (eV) =   -6169.704757      -6170.018157
       Total energy      (eV) =   -6164.060449      -6164.520667
       Conserved quantity(eV) =   -6162.964095      -6163.991147
       Thermostat KE     (eV) =       0.009712
       Thermostat Integrl(eV) =       0.978486
       Barostat term     (eV) =       0.108156
       Temperature       (K)  =     305.358520        297.415614
       Pressure         (GPa) =       0.139200          0.062112
       Cell parameter : a (A) =      30.344726         30.212611
       Cell parameter : b (A) =      10.055283         10.044333
       Cell parameter : c (A) =       8.258299          8.231717
       Cell angle : alpha (o) =      90.090835         89.972259
       Cell angle : beta  (o) =      89.930501         90.000106
       Cell angle : gamma (o) =     120.750247        120.340285
       Cell volume :   (A**3) =    2165.534139       2155.688180
  ** Time :            0.80000 ps :
     Properties:                   Instantaneous       Averaged
       Kinetic energy    (eV) =       5.234568          5.464624
       Potential energy  (eV) =   -6169.805297      -6169.991549
       Total energy      (eV) =   -6164.570728      -6164.526925
       Conserved quantity(eV) =   -6162.821785      -6163.844977
       Thermostat KE     (eV) =       0.018549
       Thermostat Integrl(eV) =       1.661468
       Barostat term     (eV) =       0.068927
       Temperature       (K)  =     283.191526        295.637603
       Pressure         (GPa) =      -1.199725         -0.096268
       Cell parameter : a (A) =      30.170855         30.207392
       Cell parameter : b (A) =      10.140495         10.056353
       Cell parameter : c (A) =       8.260304          8.235291
       Cell angle : alpha (o) =      90.258048         90.007982
       Cell angle : beta  (o) =      89.838072         89.979852
       Cell angle : gamma (o) =     119.856900        120.279862
       Cell volume :   (A**3) =    2191.761936       2160.197399
  ** Time :            0.90000 ps :
     Properties:                   Instantaneous       Averaged
       Kinetic energy    (eV) =       5.809518          5.502946
       Potential energy  (eV) =   -6170.229385      -6170.017975
       Total energy      (eV) =   -6164.419867      -6164.515030
       Conserved quantity(eV) =   -6162.567815      -6163.703070
       Thermostat KE     (eV) =       0.001148
       Thermostat Integrl(eV) =       1.749144
       Barostat term     (eV) =       0.101759
       Temperature       (K)  =     314.296469        297.710811
       Pressure         (GPa) =       1.614421          0.091877
       Cell parameter : a (A) =      30.173894         30.203670
       Cell parameter : b (A) =       9.946918         10.044194
       Cell parameter : c (A) =       8.244735          8.236340
       Cell angle : alpha (o) =      89.938482         90.000260
       Cell angle : beta  (o) =      89.988251         89.980785
       Cell angle : gamma (o) =     119.983555        120.246939
       Cell volume :   (A**3) =    2143.378028       2158.328580
  ** Time :            1.00000 ps :
     Properties:                   Instantaneous       Averaged
       Kinetic energy    (eV) =       5.882854          5.540937
       Potential energy  (eV) =   -6169.326316      -6169.948809
       Total energy      (eV) =   -6163.443461      -6164.407873
       Conserved quantity(eV) =   -6162.628734      -6163.595636
       Thermostat KE     (eV) =       0.061435
       Thermostat Integrl(eV) =       0.711973
       Barostat term     (eV) =       0.041320
       Temperature       (K)  =     318.263959        299.766126
       Pressure         (GPa) =      -1.301386         -0.048569
       Cell parameter : a (A) =      30.163886         30.199691
       Cell parameter : b (A) =      10.084884         10.048263
       Cell parameter : c (A) =       8.263894          8.239095
       Cell angle : alpha (o) =      89.635874         89.963822
       Cell angle : beta  (o) =      90.921838         90.074890
       Cell angle : gamma (o) =     120.180665        120.240311
       Cell volume :   (A**3) =    2172.816191       2159.777341

  Average number of iterations to optimise shell positions : 10.00

  Peak dynamic memory used =       0.96 MB 


  Timing analysis for GULP :

--------------------------------------------------------------------------------
  Task / Subroutine                                          Time (Seconds)
--------------------------------------------------------------------------------
  Calculation of reciprocal space energy and derivatives          2.7367
  Calculation of real space energy and derivatives              527.7635
  Calculation of three-body energy and derivatives                0.2034
  Global summation overhead                                       0.4743
--------------------------------------------------------------------------------
  Total CPU time                                                532.3021
--------------------------------------------------------------------------------


  GULP trajectory file written as tridymite_NPT.trg             


  Job Finished at 15:32.38 13th July       2011                               

