      60
 i =      501, time =      501.000, E =      -518.2508806749
  C        13.6198139809       17.1683872120       11.8661155396
  O        14.7080587521       17.1147327308       11.5053110398
  O        12.5141969784       17.2204423998       12.1686355641
  C        17.0592495219        2.8044474952       11.1985792206
  O        16.8079644860        1.6856795289       11.0469000038
  O        17.3649301055        3.9142323501       11.3669747024
  C         6.2124989462        5.0168255278       11.9080336114
  O         6.9455378631        5.6076468893       12.5513771222
  O         5.4407779008        4.4803982567       11.2325455704
  C        18.3330186516       13.9470605337       18.2270786822
  O        18.2286666449       14.4334058035       17.2023235317
  O        18.3805926149       13.4707793746       19.2705571466
  C         8.4294498188        9.0013300842        8.8880870035
  O         8.0816230834        7.9933613625        9.2820559917
  O         8.7740876130       10.0375194566        8.5416176192
  C        12.4332875215        2.8654626522        4.9171888391
  O        12.6020728643        1.8041164829        5.2882777040
  O        12.1827535654        3.9140118198        4.5325882974
  C         4.4748059372       11.8846780007       11.3239235938
  O         4.9643701247       12.6803566499       12.0418736081
  O         3.9742733601       11.0417356396       10.6746179188
  C        -0.1819072648       16.0257547588       15.5152991702
  O         0.4474429014       16.0543264133       16.4614528924
  O        -0.7668116329       16.0158386151       14.5431913350
  C         7.5103687391       18.9114852082       11.8093144682
  O         7.8338665543       19.7073809611       12.5567964942
  O         7.2476982007       18.0947800596       11.0337160119
  C         1.9414516066       17.1293867841        4.3275122605
  O         1.2930137928       17.5583351090        5.1639527621
  O         2.5476514994       16.6708776114        3.4667368476
  C         6.3658715970        5.6212017038       16.3879069779
  O         5.3523635358        5.8325083070       15.8690425683
  O         7.3756561575        5.4244644610       16.9055516273
  C        18.6760557702       12.4883559015       11.1065057838
  O        19.6461630662       12.7959788250       11.6540854715
  O        17.7051947866       12.2065572053       10.5785972531
  C         9.6941585208       15.8563288966        6.5197662788
  O         9.5813133077       15.8797106990        7.6686186837
  O         9.8538475562       15.8328998005        5.3889393691
  C        14.3963439172       15.0028978653        7.0114978562
  O        15.0704959598       15.9257067225        6.9192161130
  O        13.7398197640       14.0645320966        7.0503238426
  C         4.2857520897       17.9373763170        7.4647208622
  O         5.2782011597       17.4973849099        7.0582758381
  O         3.2962400646       18.3799507047        7.8579967682
  C         3.9183609632       11.7781113955        6.8833557542
  O         3.2782763569       11.6647005957        5.9309126681
  O         4.5587103968       11.9488846735        7.8234930513
  C         2.6866177227        0.0820630865       21.2051538789
  O         3.1402319725        0.9877751830       21.7566404725
  O         2.2476161071       -0.7755205884       20.5811098184
  C        16.3516226620       12.3316973275        4.5226335028
  O        16.6029642254       13.3441836990        4.9952353632
  O        16.0506634913       11.3539259888        4.0331072980
  C         9.2724552870       16.3998557589       17.1294189841
  O         8.2540496918       15.9824714463       17.4050984946
  O        10.3179910926       16.8208818426       16.8869298041
  C        10.4501783505        5.8383561248       20.9229176408
  O         9.6479472436        6.6396333092       21.0157763518
  O        11.2293810853        5.0003962487       20.7887470304
      60
 i =      502, time =      502.000, E =      -518.2427742830
  C        13.6229614531       17.1674429516       11.8646507471
  O        14.7080944482       17.1152062628       11.5087483263
  O        12.5194456075       17.2188272002       12.1665546171
  C        17.0577030352        2.8041123168       11.1980749814
  O        16.7991539334        1.6891792410       11.0449465646
  O        17.3652803455        3.9007342142       11.3655576382
  C         6.2107834767        5.0165833241       11.9065330917
  O         6.9440274629        5.6014397424       12.5491505885
  O         5.4413527362        4.4815749320       11.2352244357
  C        18.3312479864       13.9482348494       18.2287339842
  O        18.2286266058       14.4314161257       17.2029898529
  O        18.3794409046       13.4744566893       19.2716743870
  C         8.4288465919        9.0029244154        8.8888304119
  O         8.0805388487        7.9955236031        9.2815126585
  O         8.7749715261       10.0390993049        8.5402359300
  C        12.4328024387        2.8648130566        4.9180445390
  O        12.6035000529        1.8021876925        5.2879088493
  O        12.1838083465        3.9154365483        4.5352579131
  C         4.4832158772       11.8987262680       11.3146420066
  O         4.9642230163       12.6946220972       12.0448280807
  O         3.9774443788       11.0416919298       10.6701337658
  C        -0.1839774822       16.0249078481       15.5179734841
  O         0.4447294302       16.0544137525       16.4644598144
  O        -0.7682048995       16.0130166282       14.5461245163
  C         7.5106993265       18.9139004654       11.8117574372
  O         7.8304444221       19.7041763539       12.5596962407
  O         7.2458161041       18.1009722955       11.0346484718
  C         1.9382066603       17.1280620100        4.3246030859
  O         1.2890362735       17.5564494380        5.1603883541
  O         2.5459713524       16.6721971677        3.4668370154
  C         6.3629482190        5.6247565854       16.3871193717
  O         5.3586588898        5.8308765225       15.8700371970
  O         7.3724127531        5.4293993573       16.9047230995
  C        18.6776008456       12.4883610729       11.1066376335
  O        19.6422229253       12.7923527125       11.6545143950
  O        17.7098607019       12.2074801009       10.5758679812
  C         9.6948837908       15.8564055382        6.5157392099
  O         9.5799493462       15.8793887516        7.6629005260
  O         9.8531712581       15.8313188213        5.3900373397
  C        14.3940659178       15.0026636302        7.0100846907
  O        15.0656459024       15.9267890888        6.9190831563
  O        13.7410491070       14.0666919155        7.0507152250
  C         4.2858746735       17.9402631486        7.4618512087
  O         5.2748674892       17.4939623228        7.0585289808
  O         3.3036833871       18.3828445590        7.8512938764
  C         3.9177386327       11.7806714355        6.8785302977
  O         3.2828909267       11.6648793277        5.9323634815
  O         4.5559429724       11.9503508335        7.8182400426
  C         2.6892502150        0.0667074034       21.2169812476
  O         3.1423394279        0.9886661535       21.7667065133
  O         2.2447566653       -0.7843372096       20.5847195063
  C        16.3520717128       12.3325065003        4.5225386034
  O        16.6054179402       13.3435990525        4.9958393443
  O        16.0522402542       11.3530373655        4.0329524621
  C         9.2724196359       16.3989608641       17.1282416581
  O         8.2547946931       15.9815003994       17.4031391977
  O        10.3155497690       16.8199055858       16.8845928424
  C        10.4517573929        5.8391636284       20.9259266511
  O         9.6509985362        6.6370261970       21.0184023200
  O        11.2345047603        5.0017957139       20.7933064564
      60
 i =      503, time =      503.000, E =      -518.2421271087
  C        13.6259905034       17.1665076351       11.8631205406
  O        14.7101463602       17.1155802568       11.5116158547
  O        12.5227645476       17.2173066652       12.1650940281
  C        17.0563878094        2.8041572872       11.1976673040
  O        16.7899130352        1.6912009008       11.0427673211
  O        17.3658798093        3.8884273210       11.3642967644
  C         6.2081766971        5.0158306934       11.9042649330
  O         6.9441793772        5.5964291753       12.5483734354
  O         5.4409379440        4.4819385271       11.2370342240
  C        18.3294389177       13.9491289099       18.2310764089
  O        18.2283962442       14.4304081723       17.2014496050
  O        18.3784531544       13.4773098471       19.2745361055
  C         8.4284432337        9.0051676986        8.8894240774
  O         8.0786647901        7.9953419744        9.2817938243
  O         8.7764947073       10.0425338134        8.5381422801
  C        12.4320964672        2.8646373003        4.9187017784
  O        12.6054234067        1.7979663871        5.2883657954
  O        12.1845287947        3.9188003632        4.5372506418
  C         4.4916024018       11.9126536771       11.3058434388
  O         4.9637768383       12.7084204954       12.0471680361
  O         3.9809216501       11.0421945409       10.6659327580
  C        -0.1858235196       16.0240985331       15.5208686401
  O         0.4434740817       16.0545680966       16.4697473366
  O        -0.7711707328       16.0101501465       14.5465626316
  C         7.5108033728       18.9153797255       11.8132985630
  O         7.8276653340       19.7028121654       12.5643497521
  O         7.2434593379       18.1060280052       11.0345022081
  C         1.9351881411       17.1264527931        4.3212231237
  O         1.2838089351       17.5554727264        5.1585460140
  O         2.5453668657       16.6728116513        3.4655546625
  C         6.3604677356        5.6282567688       16.3865521169
  O         5.3633347715        5.8295549580       15.8702004377
  O         7.3704576925        5.4340644090       16.9045591659
  C        18.6799513927       12.4886617959       11.1072596100
  O        19.6397436925       12.7891452881       11.6557393680
  O        17.7124617734       12.2077651184       10.5719729255
  C         9.6955075809       15.8565071504        6.5131865613
  O         9.5783646092       15.8791016703        7.6586941277
  O         9.8527918864       15.8296839354        5.3885171768
  C        14.3919299185       15.0025393492        7.0085752397
  O        15.0619698925       15.9295673270        6.9188702453
  O        13.7409971293       14.0670825699        7.0512657373
  C         4.2867481526       17.9428171777        7.4586815980
  O         5.2725373230       17.4900832763        7.0583749876
  O         3.3095696736       18.3864485675        7.8452371997
  C         3.9172844251       11.7833732597        6.8739404616
  O         3.2863980559       11.6647728957        5.9321872193
  O         4.5541625389       11.9520119013        7.8144062709
  C         2.6923092072        0.0523404458       21.2291042347
  O         3.1447206237        0.9900284079       21.7772431098
  O         2.2413040081       -0.7943683752       20.5876297566
  C        16.3526406320       12.3340353092        4.5227440490
  O        16.6084240165       13.3448426275        4.9973489544
  O        16.0531807421       11.3497684158        4.0316597450
  C         9.2735182009       16.3985101719       17.1268408459
  O         8.2530844332       15.9795363617       17.4017807165
  O        10.3147149169       16.8195919060       16.8818203368
  C        10.4545226756        5.8386499621       20.9287003015
  O         9.6521098603        6.6364424867       21.0213176235
  O        11.2406795822        5.0021634158       20.7977534411
      60
 i =      504, time =      504.000, E =      -518.2529590911
  C        13.6287677899       17.1655892629       11.8615775752
  O        14.7143601813       17.1158489562       11.5138679410
  O        12.5241081181       17.2158802933       12.1642605257
  C        17.0550348979        2.8036569506       11.1972123678
  O        16.7802174920        1.6916762878       11.0403511331
  O        17.3669544422        3.8780746685       11.3633111493
  C         6.2049645413        5.0147593738       11.9014787045
  O         6.9459868270        5.5926067546       12.5490370110
  O         5.4393258119        4.4813537268       11.2377952107
  C        18.3275779378       13.9498283972       18.2339207442
  O        18.2279893363       14.4303067275       17.1978515472
  O        18.3776252504       13.4793498096       19.2791322729
  C         8.4282555632        9.0081056878        8.8898555212
  O         8.0760556782        7.9929860083        9.2828376223
  O         8.7785899740       10.0476189340        8.5354080496
  C        12.4311908724        2.8647611081        4.9192209475
  O        12.6077877140        1.7917676224        5.2895338897
  O        12.1849542688        3.9239187461        4.5386356988
  C         4.4997219224       11.9260879047       11.2973915951
  O         4.9629613382       12.7216100444       12.0487220870
  O         3.9849586774       11.0436645382       10.6622885171
  C        -0.1874632594       16.0233275201       15.5239402101
  O         0.4435719898       16.0547889957       16.4771576284
  O        -0.7755907989       16.0072391174       14.5446969100
  C         7.5106693460       18.9159296449       11.8139401606
  O         7.8255481385       19.7033236179       12.5708027933
  O         7.2406177476       18.1099069512       11.0332296911
  C         1.9321805506       17.1247141770        4.3176671517
  O         1.2774447869       17.5553239197        5.1582718414
  O         2.5458869898       16.6726863960        3.4628231651
  C         6.3589071998        5.6316013153       16.3864470568
  O         5.3659619114        5.8286289155       15.8693098376
  O         7.3698631530        5.4384503705       16.9051015345
  C        18.6826583704       12.4891157253       11.1081187912
  O        19.6389804895       12.7864365964       11.6579130318
  O        17.7130798602       12.2074391255       10.5669491765
  C         9.6960210507       15.8566310099        6.5120879770
  O         9.5765496158       15.8788544902        7.6561086990
  O         9.8527255421       15.8279921518        5.3842849064
  C        14.3900646831       15.0027124072        7.0069631074
  O        15.0594206297       15.9339807915        6.9185801878
  O        13.7396144921       14.0656239757        7.0519773625
  C         4.2886329793       17.9449064576        7.4551135047
  O         5.2713197044       17.4856966193        7.0577703507
  O         3.3135945024       18.3909127861        7.8399438344
  C         3.9172149189       11.7862471267        6.8699131164
  O         3.2885861390       11.6643410549        5.9300639224
  O         4.5534178137       11.9538855200        7.8120659538
  C         2.6959411962        0.0393883714       21.2416640614
  O         3.1471060715        0.9912665844       21.7879220558
  O         2.2374171136       -0.8053389168       20.5900629638
  C        16.3532448132       12.3359960032        4.5231080585
  O        16.6119566139       13.3478242718        4.9997203700
  O        16.0535743753       11.3444252667        4.0293795242
  C         9.2754143258       16.3983678230       17.1252989601
  O         8.2491123528       15.9766569307       17.4009737863
  O        10.3155459681       16.8199652560       16.8785996782
  C        10.4584881519        5.8368038591       20.9312375083
  O         9.6513455491        6.6378096893       21.0245113213
  O        11.2478307314        5.0015802887       20.8020995992
      60
 i =      505, time =      505.000, E =      -518.2635128197
  C        13.6311749653       17.1646943507       11.8600610355
  O        14.7207162695       17.1160146230       11.5155117734
  O        12.5235849450       17.2145409746       12.1640175386
  C        17.0534029373        2.8018030833       11.1965833741
  O        16.7700617603        1.6906147807       11.0376979215
  O        17.3686908340        3.8702735028       11.3626961893
  C         6.2015408388        5.0136512654       11.8985201560
  O         6.9492908418        5.5898459582       12.5509984958
  O         5.4363798786        4.4797355253       11.2373907492
  C        18.3256350823       13.9504827291       18.2369451942
  O        18.2274379458       14.4309436811       17.1925478627
  O        18.3769478628       13.4806326593       19.2853521928
  C         8.4282250510        9.0115705535        8.8901952892
  O         8.0728484956        7.9888586540        9.2844924991
  O         8.7811651061       10.0540777194        8.5321308836
  C        12.4301130887        2.8649435797        4.9196838650
  O        12.6105081062        1.7840729732        5.2912416734
  O        12.1851492695        3.9304907226        4.5395227641
  C         4.5073832087       11.9387476948       11.2892218617
  O         4.9617206194       12.7340686252       12.0493373413
  O         3.9897539200       11.0464347264       10.6594025146
  C        -0.1889339900       16.0225984639       15.5270945551
  O         0.4448055328       16.0550700501       16.4863606552
  O        -0.7812206213       16.0042879755       14.5409273832
  C         7.5103751651       18.9157767305       11.8138953035
  O         7.8240285960       19.7055361899       12.5788999803
  O         7.2372970936       18.1126135720       11.0308262862
  C         1.9289695572       17.1229914613        4.3142161418
  O         1.2701421844       17.5558655172        5.1593011229
  O         2.5474940743       16.6718503142        3.4586971449
  C         6.3586353949        5.6347153914       16.3869912076
  O         5.3662901941        5.8281444143       15.8672340069
  O         7.3706024146        5.4425673659       16.9063411960
  C        18.6851683165       12.4895536660       11.1089021467
  O        19.6400809809       12.7842724696       11.6611283354
  O        17.7119826542       12.2065833409       10.5609387661
  C         9.6964648322       15.8567657216        6.5120768861
  O         9.5745002519       15.8786511720        7.6552038738
  O         9.8529458445       15.8262481320        5.3775560734
  C        14.3885425702       15.0032871101        7.0052412778
  O        15.0578747900       15.9398616660        6.9182248499
  O        13.7369701751       14.0624056156        7.0528435222
  C         4.2915670893       17.9464991688        7.4511356714
  O         5.2712865187       17.4807669341        7.0566868605
  O         3.3156575880       18.3962964887        7.8354500529
  C         3.9176579870       11.7893112590        6.8666422926
  O         3.2893818403       11.6635687573        5.9258790660
  O         4.5536867712       11.9559729461        7.8111895822
  C         2.7001650369        0.0280605695       21.2546326813
  O         3.1492625849        0.9918449588       21.7984579287
  O         2.2333151350       -0.8168700550       20.5923252098
  C        16.3537705260       12.3380147031        4.5234436295
  O        16.6159595498       13.3523396735        5.0028554358
  O        16.0535626285       11.3374927572        4.0263502887
  C         9.2775844547       16.3983199056       17.1237506169
  O         8.2432905693       15.9730293976       17.4006109751
  O        10.3180240454       16.8210181812       16.8749370166
  C        10.4633748825        5.8339074812       20.9335731217
  O         9.6490006893        6.6408256350       21.0279450591
  O        11.2558725058        5.0001367227       20.8063571538
      60
 i =      506, time =      506.000, E =      -518.2728987130
  C        13.6331841913       17.1638249321       11.8585769996
  O        14.7290028758       17.1160882831       11.5166144084
  O        12.5214276418       17.2132761560       12.1642934472
  C        17.0513086996        2.7980034556       11.1956861151
  O        16.7594596864        1.6881026690       11.0348182038
  O        17.3712118863        3.8653826032       11.3625116264
  C         6.1983434132        5.0128255237       11.8957740779
  O         6.9538060102        5.5879265130       12.5540046975
  O         5.4320570628        4.4770646797       11.2357853248
  C        18.3235744688       13.9512585953       18.2397841149
  O        18.2267833171       14.4320938545       17.1860203347
  O        18.3764066601       13.4812572654       19.2929896240
  C         8.4282607793        9.0153002736        8.8905498825
  O         8.0692274650        7.9834987537        9.2865562560
  O         8.7841040186       10.0615679470        8.5284330896
  C        12.4288904430        2.8649360238        4.9201740089
  O        12.6134801570        1.7754649107        5.2932843798
  O        12.1851975465        3.9381202274        4.5400535994
  C         4.5144481836       11.9504428560       11.2813321071
  O         4.9600217311       12.7457091195       12.0488947360
  O         3.9954443053       11.0507351251       10.6573959503
  C        -0.1902742630       16.0219157525       15.5302201090
  O         0.4468813742       16.0554004612       16.4969088547
  O        -0.7877367880       16.0013051035       14.5357847423
  C         7.5100608993       18.9153004936       11.8135280963
  O         7.8229754401       19.7091026068       12.5883160598
  O         7.2335235170       18.1142102045       11.0273439669
  C         1.9253975394       17.1213848226        4.3110670238
  O         1.2621557146       17.5569226757        5.1612970362
  O         2.5500518497       16.6704027978        3.4533657473
  C         6.3597618355        5.6375768600       16.3882378167
  O         5.3643132934        5.8280983246       15.8639674254
  O         7.3725996361        5.4464349939       16.9082433269
  C        18.6869953512       12.4898294895       11.1093321295
  O        19.6430287956       12.7826479128       11.6653847071
  O        17.7095511988       12.2053124344       10.5541504852
  C         9.6969138248       15.8568923584        6.5125503123
  O         9.5722207415       15.8784939380        7.6559621564
  O         9.8533923211       15.8244638519        5.3688007524
  C        14.3873665672       15.0042665074        7.0034053878
  O        15.0571471452       15.9469534491        6.9178233522
  O        13.7332469660       14.0576816857        7.0538483960
  C         4.2953330028       17.9476815132        7.4468365935
  O         5.2724750315       17.4752736949        7.0551106126
  O         3.3158846947       18.4025555038        7.8317032307
  C         3.9186899748       11.7925797572        6.8642451211
  O         3.2888182621       11.6624626135        5.9196773536
  O         4.5548792862       11.9582569306        7.8116444162
  C         2.7048661136        0.0183294169       21.2678128601
  O         3.1510154563        0.9913413309       21.8086355780
  O         2.2292585090       -0.8285184408       20.5947797248
  C        16.3541108709       12.3397436716        4.5235760747
  O        16.6203452083       13.3580690017        5.0066003057
  O        16.0533134013       11.3295518383        4.0228570319
  C         9.2794672053       16.3981366991       17.1223433252
  O         8.2361808152       15.9688829135       17.4005459320
  O        10.3220088078       16.8226939643       16.8708680248
  C        10.4686956798        5.8304504110       20.9357677028
  O         9.6455400101        6.6450201836       21.0315600587
  O        11.2647058958        4.9979353695       20.8105395039
      60
 i =      507, time =      507.000, E =      -518.2843401118
  C        13.6348644963       17.1629789088       11.8571004913
  O        14.7388358831       17.1160881123       11.5172942877
  O        12.5179684727       17.2120691621       12.1649885524
  C        17.0487092532        2.7921616215       11.1945020857
  O        16.7484306338        1.6842357911       11.0317249964
  O        17.3745303573        3.8633789750       11.3627584218
  C         6.1957248114        5.0125374495       11.8935517953
  O         6.9591809595        5.5865842748       12.5577454568
  O         5.4264439580        4.4734135642       11.2330553216
  C        18.3213654965       13.9522747212       18.2421736780
  O        18.2260703861       14.4335079735       17.1788113217
  O        18.3759792964       13.4813835011       19.3017002471
  C         8.4282309952        9.0189143210        8.8910669930
  O         8.0654134695        7.9775504063        9.2887880433
  O         8.7872843585       10.0697314665        8.5244444768
  C        12.4275519043        2.8644991172        4.9207715552
  O        12.6165900261        1.7665663298        5.2954457475
  O        12.1851915255        3.9463639102        4.5403847878
  C         4.5208398734       11.9610883411       11.2737792091
  O         4.9578512452       12.7564760410       12.0473081439
  O         4.0021011835       11.0566846823       10.6563127584
  C        -0.1915275079       16.0212813923       15.5331965795
  O         0.4494573055       16.0557662415       16.5082773634
  O        -0.7947641508       15.9983032707       14.5298840880
  C         7.5098753837       18.9149006207       11.8132275392
  O         7.8222225482       19.7135816025       12.5986288541
  O         7.2293515732       18.1148381835       11.0229132076
  C         1.9213334957       17.1199757061        4.3083808135
  O         1.2537849631       17.5582898628        5.1638631128
  O         2.5533580899       16.6684883574        3.4471050583
  C         6.3620268037        5.6402344076       16.3900462421
  O         5.3603021151        5.8284340722       15.8596512705
  O         7.3757782301        5.4500727076       16.9107723236
  C        18.6878225235       12.4898490090       11.1092253820
  O        19.6476261704       12.7815026945       11.6705762018
  O        17.7062211331       12.2037573854       10.5468279410
  C         9.6974599374       15.8569854351        6.5127912125
  O         9.5697253359       15.8783837313        7.6582784559
  O         9.8539816683       15.8226575602        5.3586625507
  C        14.3864728322       15.0055586955        7.0014578228
  O        15.0570082456       15.9549337946        6.9173991014
  O        13.7287220579       14.0518435397        7.0549668808
  C         4.2995697887       17.9486075343        7.4423594026
  O         5.2748629995       17.4692252399        7.0530525687
  O         3.3145699982       18.4095661165        7.8285843998
  C         3.9201961699       11.7960253379        6.8625498876
  O         3.2870851751       11.6610618922        5.9117378087
  O         4.5568927610       11.9607180099        7.8132787709
  C         2.7097945655        0.0099141496       21.2808399523
  O         3.1522600495        0.9894757878       21.8183221813
  O         2.2255396877       -0.8397935866       20.5978326440
  C        16.3541985639       12.3409674453        4.5233965718
  O        16.6249937327       13.3645758620        5.0107445382
  O        16.0529970339       11.3212007726        4.0191921423
  C         9.2806154501       16.3976349288       17.1211954986
  O         8.2283928820       15.9644666578       17.4006208732
  O        10.3272260603       16.8248809812       16.8664616280
  C        10.4739022731        5.8269808112       20.9378893935
  O         9.6415027303        6.6498511409       21.0352881822
  O        11.2742030489        4.9951076024       20.8146639692
      60
 i =      508, time =      508.000, E =      -518.2887395157
  C        13.6363491910       17.1621522529       11.8555890001
  O        14.7497090327       17.1160365287       11.5177038796
  O        12.5136137968       17.2109005622       12.1659822760
  C        17.0457188192        2.7847086808       11.1930946252
  O        16.7369930462        1.6790989415       11.0284301275
  O        17.3785421528        3.8638542592       11.3633771103
  C         6.1939666553        5.0129890725       11.8921026694
  O         6.9650120117        5.5855213859       12.5618671622
  O         5.4197328978        4.4689273574       11.2293670068
  C        18.3189914420       13.9535632427       18.2440354065
  O        18.2253415264       14.4349494512       17.1714444322
  O        18.3756363331       13.4812236755       19.3110187555
  C         8.4280541858        9.0221783261        8.8918360810
  O         8.0616194940        7.9716310353        9.2909601505
  O         8.7905544271       10.0781269088        8.5203256075
  C        12.4261042421        2.8635434055        4.9215059308
  O        12.6197270131        1.7579587282        5.2975243256
  O        12.1852368930        3.9547073743        4.5406956550
  C         4.5265317555       11.9706864291       11.2666567707
  O         4.9552187302       12.7663535822       12.0445336774
  O         4.0097348646       11.0642974475       10.6561268775
  C        -0.1926957230       16.0206965325       15.5359753624
  O         0.4521594838       16.0561501251       16.5198898584
  O        -0.8019275149       15.9952982837       14.5238384751
  C         7.5099685237       18.9149876295       11.8133984591
  O         7.8215824826       19.7184703125       12.6093493830
  O         7.2248560536       18.1146921534       11.0177189205
  C         1.9167623029       17.1187678170        4.3061673322
  O         1.2453213852       17.5597672828        5.1666142140
  O         2.5571325319       16.6663039703        3.4402932319
  C         6.3649405329        5.6427786555       16.3921549273
  O         5.3547587510        5.8290541512       15.8545486622