      60
 i =      501, time =      501.000, E =      -518.2508806749
  C         0.0001427291       -0.0000431357       -0.0000637790
  O        -0.0000371664        0.0000235872        0.0001677844
  O         0.0002796303       -0.0000758338       -0.0001082053
  C        -0.0000809551       -0.0000409970       -0.0000279387
  O        -0.0003942277        0.0001887134       -0.0000848544
  O         0.0000153814       -0.0006264392       -0.0000656072
  C        -0.0000564362        0.0000010612       -0.0000495809
  O        -0.0001029133       -0.0003078842       -0.0001313680
  O         0.0000435673        0.0000688275        0.0001376808
  C        -0.0000800326        0.0000610407        0.0000578156
  O         0.0000024371       -0.0001130858        0.0000799796
  O        -0.0000563371        0.0001858944        0.0000137263
  C        -0.0000306981        0.0000621826        0.0000357957
  O        -0.0000319972        0.0001511848       -0.0000431278
  O         0.0000251962        0.0000279415       -0.0000462235
  C        -0.0000170868       -0.0000408261        0.0000437797
  O         0.0000535356       -0.0000338756       -0.0000365144
  O         0.0000561875        0.0000191402        0.0001381855
  C         0.0003800384        0.0006374579       -0.0004376833
  O        -0.0000022651        0.0006583846        0.0001441610
  O         0.0001440114       -0.0000045141       -0.0002047216
  C        -0.0000991403       -0.0000395636        0.0001181984
  O        -0.0001573386        0.0000025495        0.0000854223
  O        -0.0000282197       -0.0001280620        0.0001902402
  C         0.0000183303        0.0001280033        0.0001286339
  O        -0.0001689694       -0.0001834546        0.0000975236
  O        -0.0000758678        0.0003067772        0.0000649536
  C        -0.0001545725       -0.0000530563       -0.0001204542
  O        -0.0001541852       -0.0001064520       -0.0002012030
  O        -0.0000996246        0.0000751471        0.0000337483
  C        -0.0001289165        0.0001605595       -0.0000335640
  O         0.0003112956       -0.0000789295        0.0000575553
  O        -0.0001753573        0.0002313832       -0.0000517582
  C         0.0000466108       -0.0000084728       -0.0000083751
  O        -0.0002062154       -0.0001730189        0.0000056711
  O         0.0002574007        0.0000559315       -0.0000999692
  C         0.0000340644        0.0000030497       -0.0002099228
  O        -0.0000575886       -0.0000153930       -0.0002927206
  O        -0.0000363620       -0.0000712418        0.0001009223
  C        -0.0001037066       -0.0000078224       -0.0000624362
  O        -0.0002476236        0.0000120743       -0.0000044327
  O         0.0000818210        0.0001337449        0.0000144635
  C        -0.0000048163        0.0001361946       -0.0001268554
  O        -0.0001711386       -0.0001478945        0.0000191623
  O         0.0003665710        0.0001204647       -0.0003175331
  C        -0.0000254922        0.0001146566       -0.0002157624
  O         0.0002289699        0.0000133650        0.0000925933
  O        -0.0001468951        0.0000632318       -0.0002693005
  C         0.0001173879       -0.0007086948        0.0005417493
  O         0.0000831541        0.0000151755        0.0004409265
  O        -0.0001153234       -0.0003723435        0.0001835234
  C         0.0000170428        0.0000174761       -0.0000126324
  O         0.0000996264       -0.0000679319        0.0000071583
  O         0.0000870824        0.0000155130        0.0000197571
  C        -0.0000293999       -0.0000517633       -0.0000484352
  O         0.0000886005       -0.0000223710       -0.0001028242
  O        -0.0001453522       -0.0000585580       -0.0000975419
  C         0.0000522469        0.0000599714        0.0001420827
  O         0.0001798302       -0.0001616160        0.0001138153
  O         0.0002087736        0.0000891073        0.0002112183
      60
 i =      502, time =      502.000, E =      -518.2427742830
  C         0.0001411653       -0.0000429580       -0.0000684511
  O         0.0000477126        0.0000193703        0.0001440975
  O         0.0001958130       -0.0000716677       -0.0000809423
  C        -0.0000654049       -0.0000066327       -0.0000208420
  O        -0.0004125685        0.0001261918       -0.0000944531
  O         0.0000217056       -0.0005897777       -0.0000612047
  C        -0.0000987856       -0.0000227371       -0.0000861337
  O        -0.0000310484       -0.0002563825       -0.0000686497
  O         0.0000036578        0.0000352031        0.0001025888
  C        -0.0000818153        0.0000472730        0.0000913686
  O        -0.0000061800       -0.0000685113       -0.0000199737
  O        -0.0000488977        0.0001492549        0.0000909397
  C        -0.0000230056        0.0000877092        0.0000305590
  O        -0.0000676122        0.0000452672       -0.0000059919
  O         0.0000550145        0.0001146039       -0.0000794294
  C        -0.0000272217       -0.0000188635        0.0000345784
  O         0.0000765771       -0.0001405613        0.0000020133
  O         0.0000405731        0.0001094429        0.0001065586
  C         0.0003838856        0.0006393881       -0.0004132246
  O        -0.0000135596        0.0006414032        0.0001210049
  O         0.0001519476        0.0000104883       -0.0001985006
  C        -0.0000895066       -0.0000378533        0.0001272910
  O        -0.0000907079        0.0000055237        0.0001895707
  O        -0.0000996279       -0.0001300108        0.0000770515
  C         0.0000099336        0.0000890098        0.0000910571
  O        -0.0001417298       -0.0001044205        0.0001726308
  O        -0.0000968798        0.0002570734        0.0000179686
  C        -0.0001431524       -0.0000670568       -0.0001437391
  O        -0.0002103784       -0.0000654202       -0.0001235720
  O        -0.0000522156        0.0000442028       -0.0000270190
  C        -0.0001235060        0.0001612445       -0.0000309655
  O         0.0002507492       -0.0000674992        0.0000264633
  O        -0.0001188117        0.0002194082       -0.0000226828
  C         0.0000890350        0.0000069913        0.0000172288
  O        -0.0001467157       -0.0001561815        0.0000378000
  O         0.0001660880        0.0000276070       -0.0001514000
  C         0.0000308330        0.0000040740       -0.0001503804
  O        -0.0000673929       -0.0000139194       -0.0002268272
  O        -0.0000241275       -0.0000734991       -0.0000096493
  C        -0.0001008826       -0.0000081939       -0.0000667968
  O        -0.0001948645        0.0000882347       -0.0000079049
  O         0.0000269089        0.0000582914        0.0000215271
  C         0.0000227652        0.0001243517       -0.0001380283
  O        -0.0001294478       -0.0001668799        0.0000022661
  O         0.0003046501        0.0001485096       -0.0002916218
  C        -0.0000246044        0.0001202607       -0.0002151879
  O         0.0001856226        0.0000016524        0.0000291301
  O        -0.0001039420        0.0000714732       -0.0002076797
  C         0.0001300797       -0.0006793153        0.0005473888
  O         0.0001025888        0.0000514978        0.0004708763
  O        -0.0001442639       -0.0004307689        0.0001490141
  C         0.0000232659        0.0000534349        0.0000025265
  O         0.0001247843        0.0000150599        0.0000483064
  O         0.0000575321       -0.0000950219       -0.0000330840
  C         0.0000242931       -0.0000307536       -0.0000589237
  O        -0.0000220611       -0.0000670818       -0.0000758283
  O        -0.0000748775       -0.0000294817       -0.0001167776
  C         0.0000992902        0.0000067157        0.0001321635
  O         0.0000951372       -0.0000729267        0.0001266466
  O         0.0002582288        0.0000403889        0.0002058428
      60
 i =      503, time =      503.000, E =      -518.2421271087
  C         0.0001327047       -0.0000423663       -0.0000702378
  O         0.0001432042        0.0000146888        0.0001170095
  O         0.0001065624       -0.0000673520       -0.0000524318
  C        -0.0000609807       -0.0000104075       -0.0000197152
  O        -0.0004327951        0.0000570704       -0.0001050293
  O         0.0000382617       -0.0005178872       -0.0000513438
  C        -0.0001329926       -0.0000416866       -0.0001155187
  O         0.0000447815       -0.0002018792       -0.0000025958
  O        -0.0000463256       -0.0000050557        0.0000587554
  C        -0.0000838795        0.0000364208        0.0001185442
  O        -0.0000145649       -0.0000253555       -0.0001174367
  O        -0.0000414970        0.0001118330        0.0001704511
  C        -0.0000135080        0.0001184187        0.0000234290
  O        -0.0001024635       -0.0000579971        0.0000302822
  O         0.0000827002        0.0001947174       -0.0001103419
  C        -0.0000368326       -0.0000011873        0.0000268870
  O         0.0000979951       -0.0002381522        0.0000371405
  O         0.0000261902        0.0001938619        0.0000771998
  C         0.0003772480        0.0006253542       -0.0003942606
  O        -0.0000288358        0.0006168134        0.0000889981
  O         0.0001717404        0.0000450842       -0.0001793043
  C        -0.0000796679       -0.0000361186        0.0001363704
  O        -0.0000264535        0.0000085762        0.0002902104
  O        -0.0001688058       -0.0001320458       -0.0000326281
  C        -0.0000006852        0.0000463772        0.0000498865
  O        -0.0001119053       -0.0000194894        0.0002538419
  O        -0.0001188092        0.0002042028       -0.0000324264
  C        -0.0001377276       -0.0000765152       -0.0001585218
  O        -0.0002649251       -0.0000257239       -0.0000483732
  O        -0.0000019281        0.0000111814       -0.0000917371
  C        -0.0000923581        0.0001564373       -0.0000153659
  O         0.0001669116       -0.0000513694       -0.0000166239
  O        -0.0000582715        0.0002068622        0.0000086492
  C         0.0001155905        0.0000172477        0.0000338521
  O        -0.0000741063       -0.0001352137        0.0000776763
  O         0.0000735743       -0.0000009365       -0.0002038406
  C         0.0000259922        0.0000051532       -0.0000834495
  O        -0.0000777013       -0.0000122106       -0.0001552282
  O        -0.0000101869       -0.0000760315       -0.0001314727
  C        -0.0000914488        0.0000011148       -0.0000713442
  O        -0.0001422795        0.0001643674       -0.0000114954
  O        -0.0000327883       -0.0000244079        0.0000288463
  C         0.0000630415        0.0001061235       -0.0001539912
  O        -0.0000810851       -0.0001889139       -0.0000173386
  O         0.0002265200        0.0001844005       -0.0002594069
  C        -0.0000119696        0.0001274332       -0.0001969469
  O         0.0001301649       -0.0000123023       -0.0000525568
  O        -0.0000577129        0.0000807858       -0.0001411097
  C         0.0001529233       -0.0006243804        0.0005641293
  O         0.0001089423        0.0000594332        0.0004848843
  O        -0.0001677465       -0.0004799971        0.0001221255
  C         0.0000268114        0.0000797531        0.0000130150
  O         0.0001494423        0.0000965680        0.0000887014
  O         0.0000304915       -0.0001968308       -0.0000816600
  C         0.0000684441       -0.0000135540       -0.0000672558
  O        -0.0001298707       -0.0001106982       -0.0000494908
  O        -0.0000000869        0.0000013638       -0.0001369746
  C         0.0001538325       -0.0000539329        0.0001213804
  O         0.0000079310        0.0000179068        0.0001396221
  O         0.0003045670       -0.0000049236        0.0002009685
      60
 i =      504, time =      504.000, E =      -518.2529590911
  C         0.0001184916       -0.0000414429       -0.0000699254
  O         0.0002415768        0.0000099275        0.0000890418
  O         0.0000187503       -0.0000632103       -0.0000246033
  C        -0.0000682197       -0.0000538057       -0.0000247734
  O        -0.0004537038       -0.0000133959       -0.0001158619
  O         0.0000642464       -0.0004149081       -0.0000365814
  C        -0.0001516635       -0.0000498111       -0.0001312977
  O         0.0001168233       -0.0001504604        0.0000599961
  O        -0.0001041752       -0.0000503499        0.0000081484
  C        -0.0000869372        0.0000309417        0.0001341319
  O        -0.0000219020        0.0000122391       -0.0002034506
  O        -0.0000344037        0.0000759434        0.0002472032
  C        -0.0000049866        0.0001463382        0.0000176262
  O        -0.0001329323       -0.0001481772        0.0000616786
  O         0.0001067426        0.0002638376       -0.0001373913
  C        -0.0000453304        0.0000070001        0.0000224457
  O         0.0001162115       -0.0003175360        0.0000657286
  O         0.0000141810        0.0002671849        0.0000519297
  C         0.0003606726        0.0005963825       -0.0003798885
  O        -0.0000469952        0.0005861917        0.0000495798
  O         0.0002018628        0.0000969101       -0.0001492497
  C        -0.0000710903       -0.0000342843        0.0001422942
  O         0.0000304305        0.0000114722        0.0003796998
  O        -0.0002296917       -0.0001339808       -0.0001287944
  C        -0.0000097867        0.0000090736        0.0000136386
  O        -0.0000831182        0.0000622580        0.0003325476
  O        -0.0001408390        0.0001505141       -0.0000840137
  C        -0.0001421266       -0.0000791092       -0.0001601456
  O        -0.0003123556        0.0000089773        0.0000172581
  O         0.0000486177       -0.0000219715       -0.0001567296
  C        -0.0000418784        0.0001476128        0.0000100355
  O         0.0000675466       -0.0000322382       -0.0000677982
  O         0.0000033076        0.0001943363        0.0000407286
  C         0.0001192335        0.0000203838        0.0000375404
  O         0.0000077088       -0.0001113690        0.0001231656
  O        -0.0000109503       -0.0000270097       -0.0002521873
  C         0.0000218781        0.0000059097       -0.0000253618
  O        -0.0000883204       -0.0000102962       -0.0000797703
  O         0.0000035187       -0.0000785258       -0.0002505176
  C        -0.0000774183        0.0000170902       -0.0000761982
  O        -0.0000935942        0.0002352786       -0.0000147506
  O        -0.0000920366       -0.0001068925        0.0000360605
  C         0.0001101375        0.0000841524       -0.0001724632
  O        -0.0000285873       -0.0002129263       -0.0000385824
  O         0.0001391402        0.0002250757       -0.0002236867
  C         0.0000085378        0.0001357138       -0.0001668007
  O         0.0000681948       -0.0000275208       -0.0001441738
  O        -0.0000108737        0.0000905303       -0.0000735179
  C         0.0001795461       -0.0005549201        0.0005834563
  O         0.0001038072        0.0000415175        0.0004848678
  O        -0.0001825868       -0.0005142791        0.0001073153
  C         0.0000258239        0.0000909496        0.0000159890
  O         0.0001722257        0.0001713461        0.0001258514
  O         0.0000087281       -0.0002805620       -0.0001213484
  C         0.0000929348       -0.0000043486       -0.0000706276
  O        -0.0002238402       -0.0001487176       -0.0000267346
  O         0.0000756306        0.0000325977       -0.0001573193
  C         0.0002023185       -0.0001083901        0.0001113690
  O        -0.0000710606        0.0001001775        0.0001514710
  O         0.0003472365       -0.0000463204        0.0001966391
      60
 i =      505, time =      505.000, E =      -518.2635128197
  C         0.0001009375       -0.0000403240       -0.0000685786
  O         0.0003346609        0.0000054699        0.0000627709
  O        -0.0000612627       -0.0000595179        0.0000007524
  C        -0.0000851628       -0.0001292114       -0.0000348827
  O        -0.0004744227       -0.0000816756       -0.0001264559
  O         0.0000973045       -0.0002900790       -0.0000182732
  C        -0.0001513268       -0.0000441984       -0.0001303801
  O         0.0001787086       -0.0001069676        0.0001135372
  O        -0.0001661283       -0.0000980268       -0.0000459362
  C        -0.0000914999        0.0000326874        0.0001340082
  O        -0.0000275637        0.0000408450       -0.0002704041
  O        -0.0000278511        0.0000435952        0.0003167118
  C         0.0000001192        0.0001644333        0.0000158697
  O        -0.0001560598       -0.0002168326        0.0000849899
  O         0.0001260243        0.0003188067       -0.0001594137
  C        -0.0000525766        0.0000039977        0.0000217824
  O         0.0001301016       -0.0003726008        0.0000857180
  O         0.0000055601        0.0003245769        0.0000324063
  C         0.0003365708        0.0005566359       -0.0003670419
  O        -0.0000671851        0.0005507878        0.0000039459
  O         0.0002396505        0.0001615993       -0.0001118203
  C        -0.0000642459       -0.0000322662        0.0001435280
  O         0.0000756365        0.0000139751        0.0004514171
  O        -0.0002775983       -0.0001356227       -0.0002036889
  C        -0.0000139061       -0.0000143793       -0.0000094178
  O        -0.0000587994        0.0001320796        0.0004002682
  O        -0.0001621397        0.0000983515       -0.0001345191
  C        -0.0001550267       -0.0000760929       -0.0001508469
  O        -0.0003494340        0.0000365398        0.0000691413
  O         0.0000951885       -0.0000521920       -0.0002161507
  C         0.0000195328        0.0001365719        0.0000409281
  O        -0.0000376794       -0.0000121267       -0.0001221016
  O         0.0000625427        0.0001824897        0.0000718061
  C         0.0000991223        0.0000163132        0.0000277310
  O         0.0000925246       -0.0000865909        0.0001707662
  O        -0.0000806481       -0.0000486058       -0.0002925159
  C         0.0000204045        0.0000059732        0.0000105667
  O        -0.0000989370       -0.0000082405       -0.0000033493
  O         0.0000152393       -0.0000806398       -0.0003538926
  C        -0.0000616658        0.0000355192       -0.0000813122
  O        -0.0000519608        0.0002964920       -0.0000172976
  O        -0.0001455307       -0.0001815222        0.0000427627
  C         0.0001531300        0.0000634243       -0.0001891700
  O         0.0000264052       -0.0002382174       -0.0000607887
  O         0.0000523427        0.0002660960       -0.0001883402
  C         0.0000337126        0.0001447332       -0.0001295429
  O         0.0000053052       -0.0000429320       -0.0002373865
  O         0.0000334022        0.0000999092       -0.0000096343
  C         0.0002039803       -0.0004813055        0.0005976346
  O         0.0000893496        0.0000017083        0.0004734105
  O        -0.0001864661       -0.0005297714        0.0001078023
  C         0.0000197939        0.0000856535        0.0000106966
  O         0.0001917225        0.0002341448        0.0001572419
  O        -0.0000059646       -0.0003399344       -0.0001490725
  C         0.0000926291       -0.0000052824       -0.0000675515
  O        -0.0002955522       -0.0001776763       -0.0000097787
  O         0.0001477091        0.0000623650       -0.0001767081
  C         0.0002332945       -0.0001452090        0.0001035383
  O        -0.0001326864        0.0001647969        0.0001610999
  O         0.0003856843       -0.0000833052        0.0001928952
      60
 i =      506, time =      506.000, E =      -518.2728987130
  C         0.0000843248       -0.0000392067       -0.0000676637
  O         0.0004141264        0.0000016796        0.0000407396
  O        -0.0001283653       -0.0000564936        0.0000221927
  C        -0.0001072748       -0.0002203570       -0.0000475681
  O        -0.0004943825       -0.0001457927       -0.0001365121
  O         0.0001334631       -0.0001575754        0.0000014223
  C        -0.0001329261       -0.0000254564       -0.0001135526
  O         0.0002260401       -0.0000745462        0.0001542028
  O        -0.0002270869       -0.0001444893       -0.0000990868
  C        -0.0000975820        0.0000409562        0.0001194978
  O        -0.0000312558        0.0000586073       -0.0003139506
  O        -0.0000221367        0.0000171606        0.0003736371
  C         0.0000001359        0.0001678429        0.0000199229
  O        -0.0001699286       -0.0002584516        0.0000981753
  O         0.0001398564        0.0003577687       -0.0001756739
  C        -0.0000585362       -0.0000101583        0.0000248593
  O         0.0001390032       -0.0004001169        0.0000960847
  O         0.0000009658        0.0003627840        0.0000197017
  C         0.0003075540        0.0005105987       -0.0003529441
  O        -0.0000884351        0.0005121247       -0.0000463776
  O         0.0002821985        0.0002342642       -0.0000706168
  C        -0.0000592752       -0.0000301019        0.0001394626
  O         0.0001063169        0.0000159116        0.0005009095
  O        -0.0003095393       -0.0001367813       -0.0002523961
  C        -0.0000114226       -0.0000200236       -0.0000152618
  O        -0.0000412775        0.0001838791        0.0004509063
  O        -0.0001815960        0.0000508438       -0.0001808546
  C        -0.0001745233       -0.0000689255       -0.0001333673
  O        -0.0003738467        0.0000554088        0.0001042649
  O         0.0001340229       -0.0000768380       -0.0002649388
  C         0.0000775111        0.0001261379        0.0000698233
  O        -0.0001368584        0.0000066202       -0.0001733045
  O         0.0001182940        0.0001715357        0.0001012741
  C         0.0000606623        0.0000067501        0.0000073876
  O         0.0001724464       -0.0000633036        0.0002159324
  O        -0.0001316804       -0.0000645876       -0.0003225049
  C         0.0000227433        0.0000050216        0.0000163260
  O        -0.0001091314       -0.0000061124        0.0000702700
  O         0.0000236739       -0.0000820630       -0.0004318142
  C        -0.0000473042        0.0000519174       -0.0000864714
  O        -0.0000198050        0.0003444757       -0.0000188726
  O        -0.0001885119       -0.0002413978        0.0000485297
  C         0.0001829029        0.0000481870       -0.0002005829
  O         0.0000817410       -0.0002637871       -0.0000830623
  O        -0.0000248570        0.0003032793       -0.0001569155
  C         0.0000580105        0.0001534512       -0.0000935325
  O        -0.0000524906       -0.0000572948       -0.0003232005
  O         0.0000732734        0.0001084491        0.0000477487
  C         0.0002200843       -0.0004147391        0.0005989710
  O         0.0000685075       -0.0000541477        0.0004540004
  O        -0.0001777090       -0.0005239206        0.0001258732
  C         0.0000097829        0.0000674853       -0.0000010755
  O         0.0002064776        0.0002796599        0.0001803066
  O        -0.0000129267       -0.0003723557       -0.0001636005
  C         0.0000692738       -0.0000156552       -0.0000583976
  O        -0.0003404888       -0.0001957027        0.0000002262
  O         0.0002103134        0.0000882849       -0.0001937062
  C         0.0002406050       -0.0001583100        0.0000986490
  O        -0.0001713669        0.0002062792        0.0001678281
  O         0.0004189472       -0.0001149413        0.0001898535
      60
 i =      507, time =      507.000, E =      -518.2843401118
  C         0.0000723365       -0.0000382293       -0.0000682912
  O         0.0004732422       -0.0000011829        0.0000249000
  O        -0.0001785866       -0.0000542945        0.0000385984
  C        -0.0001277575       -0.0003038540       -0.0000592289
  O        -0.0005134783       -0.0002057815       -0.0001460004
  O         0.0001675343       -0.0000349305        0.0000197808
  C        -0.0001000314        0.0000037379       -0.0000839106
  O         0.0002561148       -0.0000549695        0.0001796978
  O        -0.0002816706       -0.0001859797       -0.0001466916
  C        -0.0001047457        0.0000526730        0.0000971639
  O        -0.0000329523        0.0000652651       -0.0003331344
  O        -0.0000176059       -0.0000007677        0.0004120584
  C        -0.0000047217        0.0001571989        0.0000293963
  O        -0.0001738813       -0.0002712384        0.0001006516
  O         0.0001474250        0.0003784575       -0.0001852977
  C        -0.0000636790       -0.0000318285        0.0000304413
  O         0.0001427728       -0.0004001063        0.0000969046
  O         0.0000008993        0.0003791016        0.0000146743
  C         0.0002761718        0.0004626698       -0.0003354069
  O        -0.0001097733        0.0004718322       -0.0000996726
  O         0.0003266128        0.0003099688       -0.0000290048
  C        -0.0000553428       -0.0000278655        0.0001315371
  O         0.0001206320        0.0000171337        0.0005252342
  O        -0.0003243311       -0.0001372867       -0.0002730337
  C        -0.0000021113       -0.0000071506       -0.0000029629
  O        -0.0000318362        0.0002141003        0.0004807196
  O        -0.0001980961        0.0000110150       -0.0002199818
  C        -0.0001973596       -0.0000598120       -0.0001119832
  O        -0.0003847510        0.0000650139        0.0001215249
  O         0.0001618300       -0.0000936793       -0.0002987742
  C         0.0001183599        0.0001188878        0.0000895261
  O        -0.0002183704        0.0000218456       -0.0002152672
  O         0.0001692195        0.0001617165        0.0001284305
  C         0.0000127861       -0.0000056053       -0.0000184670
  O         0.0002395348       -0.0000439058        0.0002539998
  O        -0.0001628128       -0.0000745796       -0.0003412617
  C         0.0000290042        0.0000029118       -0.0000085006
  O        -0.0001183153       -0.0000040178        0.0001360405
  O         0.0000281495       -0.0000825810       -0.0004789171
  C        -0.0000372434        0.0000621765       -0.0000913446
  O         0.0000014574        0.0003770509       -0.0000193471
  O        -0.0002173810       -0.0002812554        0.0000529816
  C         0.0001931069        0.0000414762       -0.0002042368
  O         0.0001347723       -0.0002883574       -0.0001043494
  O        -0.0000850359        0.0003330812       -0.0001323234
  C         0.0000744857        0.0001603476       -0.0000691825
  O        -0.0000988809       -0.0000692169       -0.0003921458
  O         0.0001076398        0.0001159016        0.0000969651
  C         0.0002240581       -0.0003624739        0.0005830791
  O         0.0000439337       -0.0001205268        0.0004297674
  O        -0.0001561107       -0.0004968123        0.0001616880
  C        -0.0000025385        0.0000417143       -0.0000166546
  O         0.0002153701        0.0003039987        0.0001931355
  O        -0.0000122912       -0.0003778896       -0.0001650281
  C         0.0000296494       -0.0000327028       -0.0000449292
  O        -0.0003579261       -0.0002024827        0.0000031478
  O         0.0002576278        0.0001079695       -0.0002068568
  C         0.0002241511       -0.0001476915        0.0000967043
  O        -0.0001850905        0.0002226822        0.0001713884
  O         0.0004450864       -0.0001392874        0.0001877768
      60
 i =      508, time =      508.000, E =      -518.2887395157
  C         0.0000672645       -0.0000374605       -0.0000710099
  O         0.0005076613       -0.0000029724        0.0000164083
  O        -0.0002092977       -0.0000530152        0.0000492243
  C        -0.0001409626       -0.0003611348       -0.0000669711
  O        -0.0005315018       -0.0002612649       -0.0001548700
  O         0.0001950723        0.0000635363        0.0000345337
  C        -0.0000606990        0.0000373328       -0.0000483814
  O         0.0002689994       -0.0000479008        0.0001901323
  O        -0.0003238918       -0.0002182853       -0.0001836477
  C        -0.0001124588        0.0000652261        0.0000725130
  O        -0.0000328222        0.0000613562       -0.0003287279
  O        -0.0000144899       -0.0000087736        0.0004286245
  C        -0.0000125749        0.0001378692        0.0000420743
  O        -0.0001685017       -0.0002569899        0.0000932106
  O         0.0001479157        0.0003786350       -0.0001874076
  C        -0.0000686742       -0.0000555271        0.0000367108
  O         0.0001416689       -0.0003750059        0.0000890531
  O         0.0000055999        0.0003718453        0.0000178003
  C         0.0002450292        0.0004172707       -0.0003125045
  O        -0.0001301321        0.0004318123       -0.0001539163
  O         0.0003698836        0.0003834909        0.0000095893
  C        -0.0000511310       -0.0000255984        0.0001220948
  O         0.0001179466        0.0000175700        0.0005232672
  O        -0.0003223315       -0.0001370216       -0.0002662438
  C         0.0000124193        0.0000204110        0.0000239317
  O        -0.0000305372        0.0002222631        0.0004889326
  O        -0.0002103699       -0.0000177860       -0.0002484634
  C        -0.0002191851       -0.0000516026       -0.0000922740
  O        -0.0003827177        0.0000657455        0.0001216889
  O         0.0001759234       -0.0001009659       -0.0003142330
  C         0.0001357435        0.0001158725        0.0000965449
  O        -0.0002747534        0.0000322802       -0.0002439815