ITEM: TIMESTEP
2000
ITEM: NUMBER OF ATOMS
20
ITEM: BOX BOUNDS
0 40
0 40
0 40
ITEM: ATOMS id type xs ys zs ix iy iz
10 7 0.163627 0.0373556 0.144117 0 0 0
1 1 0.0822475 0.0311116 0.149519 0 0 0
2 2 0.104503 0.0464002 0.123532 0 0 0
3 3 0.137759 0.0314976 0.123125 0 0 0
5 5 0.057922 0.0389635 0.154276 0 0 0
7 5 0.0875744 0.00570768 0.151036 0 0 0
8 6 0.108103 0.0727968 0.127921 0 0 0
4 4 0.143362 0.0135359 0.0996307 0 0 0
9 6 0.091772 0.0396184 0.100708 0 0 0
16 12 0.18408 0.0250294 0.136975 0 0 0
19 13 0.170648 0.108725 0.147949 0 0 0
14 11 0.187414 0.091047 0.161285 0 0 0
20 13 0.209787 0.0843213 0.146263 0 0 0
6 5 0.0941135 0.0397413 0.170983 0 0 0
12 9 0.134807 0.0665328 0.191273 0 0 0
15 10 0.119991 0.0937238 0.185814 0 0 0
13 10 0.11964 0.0432153 0.205721 0 0 0
11 8 0.167841 0.0584548 0.172897 0 0 0
17 6 0.181366 0.043645 0.190973 0 0 0
18 13 0.196253 0.105862 0.183052 0 0 0
ITEM: TIMESTEP
4000
ITEM: NUMBER OF ATOMS
20
ITEM: BOX BOUNDS
0 40
0 40
0 40
ITEM: ATOMS id type xs ys zs ix iy iz
1 1 0.0852354 0.0614499 0.155632 0 0 0
5 5 0.105761 0.0756436 0.148335 0 0 0
7 5 0.0672102 0.0667839 0.13767 0 0 0
12 9 0.149914 0.0853268 0.142301 0 0 0
15 10 0.131716 0.0892207 0.117752 0 0 0
2 2 0.0981199 0.028017 0.156516 0 0 0
8 6 0.108908 0.0235096 0.132179 0 0 0
9 6 0.0768636 0.0124675 0.162465 0 0 0
19 13 0.152 0.034916 0.0956325 0 0 0
11 8 0.170151 0.0513841 0.145693 0 0 0
17 6 0.194434 0.059523 0.154242 0 0 0
14 11 0.173052 0.0311432 0.113354 0 0 0
20 13 0.17679 0.00387784 0.117106 0 0 0
18 13 0.193256 0.0400063 0.0964802 0 0 0
10 7 0.157206 0.0310336 0.173642 0 0 0
3 3 0.12663 0.0197264 0.180332 0 0 0
4 4 0.120923 0.00519482 0.205967 0 0 0
13 10 0.147578 0.102911 0.167867 0 0 0
6 5 0.0782467 0.0732523 0.17772 0 0 0
16 12 0.174555 0.0301522 0.191516 0 0 0
ITEM: TIMESTEP
6000
ITEM: NUMBER OF ATOMS
20
ITEM: BOX BOUNDS
0 40
0 40
0 40
ITEM: ATOMS id type xs ys zs ix iy iz
2 2 0.114432 0.0696849 0.121351 0 0 0
9 6 0.0980622 0.0846987 0.106001 0 0 0
3 3 0.101517 0.0735828 0.156803 0 0 0
4 4 0.0811173 0.095235 0.163292 0 0 0
1 1 0.149853 0.0806009 0.111676 0 0 0
6 5 0.155808 0.102015 0.125166 0 0 0
5 5 0.165757 0.0634036 0.12296 0 0 0
8 6 0.109725 0.0434722 0.116908 0 0 0
7 5 0.150431 0.0811954 0.0856899 0 0 0
12 9 0.168142 0.0345566 0.160023 0 0 0
15 10 0.168582 0.0161612 0.134125 0 0 0
13 10 0.18666 0.0599688 0.164182 0 0 0
19 13 0.117658 0.987171 0.15912 0 -1 0
11 8 0.139827 0.0301417 0.187339 0 0 0
10 7 0.110818 0.0540687 0.182339 0 0 0
16 12 0.0967258 0.0597709 0.202091 0 0 0
17 6 0.149603 0.0349724 0.212039 0 0 0
20 13 0.105668 0.989424 0.202154 0 -1 0
14 11 0.126973 0.992836 0.184665 0 -1 0
18 13 0.149573 0.977206 0.18871 0 -1 0
ITEM: TIMESTEP
8000
ITEM: NUMBER OF ATOMS
20
ITEM: BOX BOUNDS
0 40
0 40
0 40
ITEM: ATOMS id type xs ys zs ix iy iz
10 7 0.100811 0.0584212 0.154219 0 0 0
16 12 0.0834892 0.0763138 0.15319 0 0 0
13 10 0.165749 0.0921933 0.163939 0 0 0
2 2 0.140696 0.0250677 0.124998 0 0 0
9 6 0.141565 0.00495038 0.107011 0 0 0
3 3 0.110581 0.0441911 0.126177 0 0 0
4 4 0.0925689 0.046048 0.100881 0 0 0
8 6 0.14574 0.0139186 0.149065 0 0 0
1 1 0.172361 0.0458292 0.116844 0 0 0
6 5 0.169373 0.0608803 0.0958557 0 0 0
5 5 0.172282 0.064321 0.135121 0 0 0
7 5 0.194454 0.0321545 0.1178 0 0 0
12 9 0.155992 0.0671134 0.181745 0 0 0
19 13 0.123648 0.00177483 0.201609 0 0 0
11 8 0.117693 0.0577318 0.187646 0 0 0
17 6 0.11167 0.0787391 0.203502 0 0 0
20 13 0.0836031 0.0207486 0.21179 0 0 0
14 11 0.110745 0.0254592 0.208242 0 0 0
18 13 0.118368 0.032988 0.233867 0 0 0
15 10 0.175674 0.0479222 0.197329 0 0 0
ITEM: TIMESTEP
10000
ITEM: NUMBER OF ATOMS
20
ITEM: BOX BOUNDS
0 40
0 40
0 40
ITEM: ATOMS id type xs ys zs ix iy iz
12 9 0.157113 0.054704 0.124429 0 0 0
11 8 0.15426 0.0807624 0.153057 0 0 0
17 6 0.152419 0.103458 0.138547 0 0 0
13 10 0.132924 0.0517688 0.105322 0 0 0
1 1 0.115818 0.00336752 0.14719 0 0 0
5 5 0.119666 0.0227728 0.130319 0 0 0
18 13 0.210156 0.0912863 0.159495 0 0 0
15 10 0.18222 0.0351455 0.126341 0 0 0
6 5 0.092168 0.993129 0.150635 0 -1 0
7 5 0.135437 0.987107 0.142021 0 -1 0
10 7 0.123237 0.0803625 0.172612 0 0 0
16 12 0.113556 0.103232 0.174747 0 0 0
3 3 0.105127 0.0524042 0.18381 0 0 0
4 4 0.0758034 0.0563814 0.193503 0 0 0
8 6 0.145862 0.0186111 0.186948 0 0 0
2 2 0.119665 0.0187261 0.180414 0 0 0
9 6 0.105724 0.00295496 0.197324 0 0 0
20 13 0.183568 0.105498 0.193673 0 0 0
14 11 0.187924 0.0853548 0.175052 0 0 0
19 13 0.189506 0.0617517 0.189607 0 0 0
ITEM: TIMESTEP
12000
ITEM: NUMBER OF ATOMS
20
ITEM: BOX BOUNDS
0 40
0 40
0 40
ITEM: ATOMS id type xs ys zs ix iy iz
1 1 0.0816444 0.0448426 0.157301 0 0 0
5 5 0.0979212 0.0249076 0.160998 0 0 0
6 5 0.0721414 0.0410082 0.133406 0 0 0
10 7 0.15874 0.0710301 0.137941 0 0 0
3 3 0.12798 0.0845966 0.135509 0 0 0
2 2 0.101968 0.0774701 0.162397 0 0 0
9 6 0.0846479 0.0980846 0.16441 0 0 0
4 4 0.116901 0.101464 0.111423 0 0 0
12 9 0.145761 0.0168552 0.165893 0 0 0
13 10 0.13278 0.00417412 0.14159 0 0 0
11 8 0.171665 0.0437164 0.158598 0 0 0
17 6 0.191539 0.0326559 0.144048 0 0 0
16 12 0.172894 0.0757558 0.117976 0 0 0
7 5 0.0642893 0.0449723 0.176661 0 0 0
8 6 0.115585 0.0724309 0.18516 0 0 0
15 10 0.13741 0.0118969 0.195701 0 0 0
20 13 0.206303 0.0765508 0.181463 0 0 0
14 11 0.186932 0.058858 0.190584 0 0 0
19 13 0.167788 0.073301 0.204596 0 0 0
18 13 0.195995 0.0379408 0.206452 0 0 0
ITEM: TIMESTEP
14000
ITEM: NUMBER OF ATOMS
20
ITEM: BOX BOUNDS
0 40
0 40
0 40
ITEM: ATOMS id type xs ys zs ix iy iz
2 2 0.0998156 0.0252126 0.158079 0 0 0
9 6 0.0758576 0.0142925 0.1521 0 0 0
11 8 0.153302 0.0817632 0.147382 0 0 0
14 11 0.132194 0.113021 0.153116 0 0 0
20 13 0.126039 0.128023 0.130566 0 0 0
10 7 0.139562 0.0576639 0.122917 0 0 0
3 3 0.114984 0.0364118 0.125052 0 0 0
4 4 0.107724 0.022851 0.0986153 0 0 0
16 12 0.154001 0.0548767 0.102792 0 0 0
17 6 0.178171 0.0885987 0.139395 0 0 0
1 1 0.121942 0.00204782 0.176577 0 0 0
6 5 0.112836 0.00392373 0.200858 0 0 0
12 9 0.160265 0.0653893 0.180738 0 0 0
7 5 0.146651 0.010103 0.177335 0 0 0
8 6 0.095185 0.0468603 0.173537 0 0 0
15 10 0.148271 0.0768468 0.20752 0 0 0
19 13 0.108931 0.107867 0.167389 0 0 0
18 13 0.147056 0.130043 0.169266 0 0 0
13 10 0.174382 0.0376461 0.181292 0 0 0
5 5 0.122436 0.977688 0.167503 0 -1 0
ITEM: TIMESTEP
16000
ITEM: NUMBER OF ATOMS
20
ITEM: BOX BOUNDS
0 40
0 40
0 40
ITEM: ATOMS id type xs ys zs ix iy iz
19 13 0.107326 0.0948827 0.117074 0 0 0
11 8 0.132301 0.0501591 0.120533 0 0 0
10 7 0.108574 0.0328054 0.143044 0 0 0
16 12 0.0936686 0.0151695 0.13366 0 0 0
17 6 0.140942 0.0313555 0.103191 0 0 0
12 9 0.166557 0.0600507 0.134632 0 0 0
14 11 0.116395 0.0756387 0.0992174 0 0 0
20 13 0.0975693 0.0669838 0.0807204 0 0 0
18 13 0.133949 0.0874041 0.0811934 0 0 0
15 10 0.175605 0.0916006 0.140211 0 0 0
13 10 0.184413 0.036896 0.146526 0 0 0
2 2 0.121393 0.0612263 0.196702 0 0 0
9 6 0.106361 0.0628911 0.219069 0 0 0
3 3 0.101852 0.0363218 0.175414 0 0 0
4 4 0.0813469 0.0160959 0.189032 0 0 0
1 1 0.156708 0.0501536 0.205646 0 0 0
8 6 0.125535 0.0828113 0.18102 0 0 0
5 5 0.155969 0.0336169 0.225695 0 0 0
7 5 0.168163 0.037269 0.186184 0 0 0
6 5 0.173744 0.0697739 0.206559 0 0 0
ITEM: TIMESTEP
18000
ITEM: NUMBER OF ATOMS
20
ITEM: BOX BOUNDS
0 40
0 40
0 40
ITEM: ATOMS id type xs ys zs ix iy iz
10 7 0.117881 0.0498063 0.126794 0 0 0
16 12 0.102814 0.0423032 0.10841 0 0 0
3 3 0.10738 0.0779146 0.140879 0 0 0
4 4 0.0829752 0.0925396 0.13056 0 0 0
8 6 0.149614 0.101563 0.162932 0 0 0
11 8 0.145519 0.0264915 0.13378 0 0 0
17 6 0.135817 0.00237529 0.12648 0 0 0
19 13 0.183794 0.0610525 0.111141 0 0 0
14 11 0.176205 0.0343373 0.111534 0 0 0
20 13 0.166936 0.0269613 0.086412 0 0 0
18 13 0.19874 0.0221551 0.122269 0 0 0
2 2 0.124864 0.0947187 0.171277 0 0 0
9 6 0.110016 0.116361 0.177613 0 0 0
7 5 0.147633 0.0566722 0.198727 0 0 0
1 1 0.127733 0.0732648 0.200891 0 0 0
5 5 0.108379 0.0559457 0.202097 0 0 0
6 5 0.129605 0.0835697 0.224688 0 0 0
12 9 0.155549 0.0200549 0.168035 0 0 0
13 10 0.133349 0.00634746 0.18533 0 0 0
15 10 0.180751 0.0339026 0.17983 0 0 0
ITEM: TIMESTEP
20000
ITEM: NUMBER OF ATOMS
20
ITEM: BOX BOUNDS
0 40
0 40
0 40
ITEM: ATOMS id type xs ys zs ix iy iz
7 5 0.071329 0.0577653 0.124568 0 0 0
1 1 0.0937109 0.0709732 0.123786 0 0 0
5 5 0.0903495 0.0939535 0.112097 0 0 0
6 5 0.102057 0.0769425 0.147676 0 0 0
10 7 0.153967 0.0211099 0.158696 0 0 0
3 3 0.138962 0.0229831 0.128708 0 0 0
8 6 0.145869 0.0741004 0.109472 0 0 0
2 2 0.125935 0.0559285 0.110667 0 0 0
9 6 0.121364 0.0479056 0.0852949 0 0 0
16 12 0.16385 0.998281 0.160257 0 -1 0
4 4 0.135082 0.997262 0.113703 0 -1 0
11 8 0.155772 0.0439413 0.186409 0 0 0
17 6 0.148599 0.030162 0.208492 0 0 0
12 9 0.130073 0.0713077 0.187594 0 0 0
13 10 0.0993434 0.064235 0.19154 0 0 0
15 10 0.137553 0.0977104 0.172242 0 0 0
19 13 0.193065 0.0784112 0.169088 0 0 0
14 11 0.189158 0.0600623 0.18957 0 0 0
20 13 0.210616 0.0438662 0.182592 0 0 0
18 13 0.194264 0.0694316 0.215214 0 0 0
ITEM: TIMESTEP
22000
ITEM: NUMBER OF ATOMS
20
ITEM: BOX BOUNDS
0 40
0 40
0 40
ITEM: ATOMS id type xs ys zs ix iy iz
7 5 0.0638244 0.0464828 0.159329 0 0 0
1 1 0.0827548 0.0535942 0.142987 0 0 0
5 5 0.0738903 0.0706174 0.125447 0 0 0
6 5 0.0978263 0.0697317 0.156714 0 0 0
12 9 0.143993 0.0879414 0.161359 0 0 0
15 10 0.139651 0.101044 0.131933 0 0 0
3 3 0.127326 0.0123689 0.161666 0 0 0
8 6 0.120799 0.0396323 0.114731 0 0 0
2 2 0.106288 0.0256091 0.132668 0 0 0
9 6 0.0925637 0.0044994 0.12292 0 0 0
11 8 0.17124 0.062294 0.164561 0 0 0
19 13 0.178604 0.0575118 0.110775 0 0 0
14 11 0.193664 0.0594014 0.134036 0 0 0
20 13 0.209883 0.036854 0.134051 0 0 0
18 13 0.211087 0.0809706 0.132412 0 0 0
10 7 0.155568 0.0289716 0.172402 0 0 0
13 10 0.120593 0.091 0.182081 0 0 0
17 6 0.18523 0.0715471 0.185719 0 0 0
16 12 0.167554 0.0163533 0.190245 0 0 0
4 4 0.120469 0.985256 0.176419 0 -1 0
ITEM: TIMESTEP
24000
ITEM: NUMBER OF ATOMS
20
ITEM: BOX BOUNDS
0 40
0 40
0 40
ITEM: ATOMS id type xs ys zs ix iy iz
1 1 0.121737 0.103353 0.151889 0 0 0
6 5 0.144034 0.0912436 0.157564 0 0 0
3 3 0.0982649 0.0466266 0.163457 0 0 0
2 2 0.100484 0.0741979 0.137531 0 0 0
9 6 0.0760307 0.0841672 0.131906 0 0 0
5 5 0.12988 0.11898 0.132771 0 0 0
8 6 0.114853 0.0632747 0.11745 0 0 0
11 8 0.155123 0.0191633 0.162172 0 0 0
19 13 0.146345 0.00907833 0.106136 0 0 0
12 9 0.171483 0.0530367 0.157155 0 0 0
15 10 0.176994 0.0623337 0.126711 0 0 0
14 11 0.156974 0.998554 0.129539 0 -1 0
20 13 0.13877 0.977977 0.133622 0 -1 0
18 13 0.181868 0.987614 0.123879 0 -1 0
7 5 0.114361 0.115784 0.173501 0 0 0
10 7 0.120697 0.0234917 0.171033 0 0 0
16 12 0.112545 0.00761927 0.188436 0 0 0
4 4 0.0722017 0.0460306 0.179296 0 0 0
13 10 0.177781 0.0743496 0.180233 0 0 0
17 6 0.167866 0.00585211 0.181905 0 0 0
ITEM: TIMESTEP
26000
ITEM: NUMBER OF ATOMS
20
ITEM: BOX BOUNDS
0 40
0 40
0 40
ITEM: ATOMS id type xs ys zs ix iy iz
3 3 0.104498 0.0563829 0.131585 0 0 0
10 7 0.114118 0.0267894 0.145727 0 0 0
16 12 0.0980778 0.00832835 0.140913 0 0 0
4 4 0.0750067 0.0601434 0.122115 0 0 0
1 1 0.135017 0.107375 0.156699 0 0 0
2 2 0.128171 0.0853425 0.124989 0 0 0
8 6 0.15177 0.0746229 0.117428 0 0 0
9 6 0.116494 0.101681 0.106941 0 0 0
5 5 0.150842 0.12733 0.151467 0 0 0
19 13 0.175318 0.0048194 0.126742 0 0 0
20 13 0.153817 0.968333 0.139634 0 -1 0
14 11 0.165452 0.991692 0.149142 0 -1 0
18 13 0.188683 0.983869 0.162204 0 -1 0
11 8 0.141312 0.0148029 0.167718 0 0 0
12 9 0.159207 0.0437301 0.184121 0 0 0
17 6 0.129187 0.000242591 0.186953 0 0 0
6 5 0.146684 0.0896273 0.171696 0 0 0
13 10 0.142238 0.0606065 0.204776 0 0 0
7 5 0.11297 0.115824 0.167586 0 0 0
15 10 0.185514 0.0544665 0.169944 0 0 0
ITEM: TIMESTEP
28000
ITEM: NUMBER OF ATOMS
20
ITEM: BOX BOUNDS
0 40
0 40
0 40
ITEM: ATOMS id type xs ys zs ix iy iz
3 3 0.128666 0.0139233 0.142451 0 0 0
10 7 0.150479 0.019902 0.166431 0 0 0
6 5 0.114267 0.0829137 0.138024 0 0 0
15 10 0.144584 0.104523 0.158819 0 0 0
7 5 0.0781849 0.06371 0.133837 0 0 0
1 1 0.100567 0.0683171 0.121434 0 0 0
2 2 0.12109 0.038671 0.114346 0 0 0
8 6 0.144255 0.0459353 0.10253 0 0 0
9 6 0.105492 0.0243167 0.0976232 0 0 0
5 5 0.0950985 0.0837625 0.101246 0 0 0
19 13 0.195345 0.0716026 0.143734 0 0 0
4 4 0.113929 0.98613 0.14071 0 -1 0
11 8 0.161216 0.0511782 0.181305 0 0 0
17 6 0.165171 0.0456431 0.207434 0 0 0
13 10 0.105993 0.079525 0.189324 0 0 0
12 9 0.136237 0.0813436 0.178198 0 0 0
18 13 0.201413 0.0841469 0.184569 0 0 0
20 13 0.213412 0.0403789 0.175485 0 0 0
14 11 0.196224 0.0613718 0.169542 0 0 0
16 12 0.158223 0.999863 0.179069 0 -1 0
ITEM: TIMESTEP
30000
ITEM: NUMBER OF ATOMS
20
ITEM: BOX BOUNDS
0 40
0 40
0 40
ITEM: ATOMS id type xs ys zs ix iy iz
3 3 0.116972 0.014782 0.153094 0 0 0
10 7 0.147173 0.0213964 0.140547 0 0 0
15 10 0.147647 0.110026 0.154791 0 0 0
2 2 0.0927559 0.0437089 0.156964 0 0 0
9 6 0.0681023 0.0327019 0.157109 0 0 0
12 9 0.159658 0.0809707 0.164086 0 0 0
8 6 0.0976918 0.0629345 0.138661 0 0 0
19 13 0.138224 0.0727887 0.09385 0 0 0
16 12 0.162934 0.00214433 0.142022 0 0 0
11 8 0.165589 0.0540524 0.137984 0 0 0
14 11 0.16351 0.0632426 0.100247 0 0 0
17 6 0.192024 0.0486504 0.138937 0 0 0
18 13 0.182537 0.0833725 0.0981994 0 0 0
20 13 0.169431 0.040558 0.0853537 0 0 0
4 4 0.106674 0.986789 0.159331 0 -1 0
6 5 0.121593 0.0650873 0.191112 0 0 0
7 5 0.0935928 0.041524 0.208294 0 0 0
1 1 0.0962922 0.0593134 0.189525 0 0 0
13 10 0.160869 0.0730088 0.194246 0 0 0
5 5 0.0807862 0.0801825 0.18973 0 0 0
ITEM: TIMESTEP
32000
ITEM: NUMBER OF ATOMS
20
ITEM: BOX BOUNDS
0 40
0 40
0 40
ITEM: ATOMS id type xs ys zs ix iy iz
10 7 0.108628 0.0291723 0.151783 0 0 0
2 2 0.116187 0.0918654 0.165472 0 0 0
8 6 0.124905 0.0937987 0.139991 0 0 0
16 12 0.0910364 0.0115207 0.151293 0 0 0
19 13 0.126961 0.0491403 0.0913834 0 0 0
11 8 0.139993 0.019007 0.135291 0 0 0
14 11 0.136028 0.0238089 0.0982809 0 0 0
18 13 0.159332 0.0132799 0.0874418 0 0 0
20 13 0.115199 0.00724278 0.090332 0 0 0
12 9 0.170508 0.0378905 0.150366 0 0 0
15 10 0.185277 0.0608757 0.134515 0 0 0
17 6 0.143393 0.993117 0.142158 0 -1 0
3 3 0.0976488 0.0575051 0.167636 0 0 0
9 6 0.102291 0.113537 0.173612 0 0 0
4 4 0.0704383 0.055826 0.182076 0 0 0
6 5 0.159318 0.0756166 0.173634 0 0 0
7 5 0.142164 0.0903014 0.21159 0 0 0
1 1 0.14657 0.0944085 0.186298 0 0 0
5 5 0.158965 0.117142 0.183936 0 0 0
13 10 0.176774 0.0334915 0.181142 0 0 0
ITEM: TIMESTEP
34000
ITEM: NUMBER OF ATOMS
20
ITEM: BOX BOUNDS
0 40
0 40
0 40
ITEM: ATOMS id type xs ys zs ix iy iz
10 7 0.138624 0.0426055 0.120265 0 0 0
2 2 0.114559 0.0879054 0.154225 0 0 0
16 12 0.141039 0.0293144 0.0993185 0 0 0
3 3 0.112802 0.0634035 0.125311 0 0 0
9 6 0.098463 0.107984 0.146053 0 0 0
4 4 0.0898368 0.0651945 0.106486 0 0 0
8 6 0.139882 0.0945742 0.160803 0 0 0
11 8 0.162716 0.0313381 0.144638 0 0 0
17 6 0.165155 0.00520706 0.138296 0 0 0
19 13 0.1948 0.0758574 0.147381 0 0 0
14 11 0.197066 0.0487822 0.141613 0 0 0
18 13 0.216001 0.03311 0.154548 0 0 0
20 13 0.203969 0.0515798 0.114855 0 0 0
12 9 0.150648 0.0290971 0.181509 0 0 0
7 5 0.0751565 0.0770878 0.183205 0 0 0
13 10 0.124481 0.0145658 0.188772 0 0 0
6 5 0.107225 0.0519461 0.187014 0 0 0
1 1 0.101127 0.0770901 0.184443 0 0 0
5 5 0.111331 0.0854084 0.206864 0 0 0
15 10 0.165422 0.0479916 0.203088 0 0 0
ITEM: TIMESTEP
36000
ITEM: NUMBER OF ATOMS
20
ITEM: BOX BOUNDS
0 40
0 40
0 40
ITEM: ATOMS id type xs ys zs ix iy iz
2 2 0.105416 0.0558521 0.124093 0 0 0
7 5 0.0801904 0.0129103 0.14418 0 0 0
1 1 0.0842293 0.0381525 0.148926 0 0 0
5 5 0.0615413 0.047994 0.15695 0 0 0
10 7 0.162393 0.0411695 0.13887 0 0 0
3 3 0.137229 0.039025 0.116421 0 0 0
4 4 0.140584 0.0222516 0.0916075 0 0 0
8 6 0.111374 0.0796593 0.13535 0 0 0
19 13 0.165624 0.108805 0.149709 0 0 0
9 6 0.0949496 0.0558923 0.0992042 0 0 0
16 12 0.18403 0.0301892 0.133166 0 0 0
14 11 0.182704 0.0935227 0.165399 0 0 0
20 13 0.20589 0.0899416 0.150531 0 0 0
11 8 0.166202 0.0579452 0.171776 0 0 0
12 9 0.135551 0.0559168 0.194632 0 0 0
13 10 0.12532 0.0272375 0.201771 0 0 0
6 5 0.0979143 0.0396501 0.170982 0 0 0
15 10 0.120993 0.0822934 0.202394 0 0 0
17 6 0.182509 0.0411845 0.185272 0 0 0
18 13 0.187466 0.104969 0.190253 0 0 0
ITEM: TIMESTEP
38000
ITEM: NUMBER OF ATOMS
20
ITEM: BOX BOUNDS
0 40
0 40
0 40
ITEM: ATOMS id type xs ys zs ix iy iz
12 9 0.1583 0.0799994 0.163844 0 0 0
10 7 0.136963 0.0351206 0.125088 0 0 0
3 3 0.119559 0.0153018 0.144423 0 0 0
16 12 0.151645 0.0263339 0.106963 0 0 0
11 8 0.146226 0.0713968 0.127797 0 0 0
14 11 0.121222 0.0963023 0.11308 0 0 0
20 13 0.108341 0.0842797 0.0916091 0 0 0
18 13 0.133426 0.119278 0.103351 0 0 0
19 13 0.100281 0.101458 0.130583 0 0 0
17 6 0.167534 0.0774205 0.112348 0 0 0
4 4 0.119901 0.985625 0.137233 0 -1 0
2 2 0.101779 0.0286374 0.175773 0 0 0
7 5 0.141393 0.0152153 0.206507 0 0 0
1 1 0.125436 0.0356615 0.204683 0 0 0
5 5 0.112721 0.0384306 0.227192 0 0 0
8 6 0.0888306 0.0517299 0.170475 0 0 0
9 6 0.0853197 0.00844985 0.182882 0 0 0
6 5 0.137546 0.0576974 0.198068 0 0 0
15 10 0.137782 0.096856 0.181937 0 0 0
13 10 0.184558 0.0666657 0.17459 0 0 0
ITEM: TIMESTEP
40000
ITEM: NUMBER OF ATOMS
20
ITEM: BOX BOUNDS
0 40
0 40
0 40
ITEM: ATOMS id type xs ys zs ix iy iz
10 7 0.106914 0.0345991 0.142883 0 0 0
15 10 0.163453 0.0952699 0.145842 0 0 0
19 13 0.101418 0.098564 0.134931 0 0 0
12 9 0.162198 0.0663653 0.131887 0 0 0
16 12 0.0895166 0.0210813 0.131228 0 0 0
11 8 0.126272 0.0546821 0.119198 0 0 0
17 6 0.129176 0.0400589 0.0966878 0 0 0
14 11 0.108249 0.0860009 0.111121 0 0 0
20 13 0.087174 0.0778394 0.0949758 0 0 0
18 13 0.124825 0.100274 0.0940047 0 0 0
13 10 0.182705 0.0427305 0.135485 0 0 0
3 3 0.108053 0.0300046 0.175668 0 0 0
4 4 0.0890804 0.0102991 0.18858 0 0 0
2 2 0.130389 0.0482788 0.200052 0 0 0
8 6 0.125131 0.0741241 0.194276 0 0 0
9 6 0.120706 0.0412642 0.224259 0 0 0
7 5 0.173508 0.0179429 0.204778 0 0 0
1 1 0.167855 0.0429426 0.200413 0 0 0
5 5 0.181141 0.0596029 0.21531 0 0 0
6 5 0.175971 0.0445764 0.175766 0 0 0
ITEM: TIMESTEP
42000
ITEM: NUMBER OF ATOMS
20
ITEM: BOX BOUNDS
0 40
0 40
0 40
ITEM: ATOMS id type xs ys zs ix iy iz
10 7 0.135787 0.0676118 0.124288 0 0 0
16 12 0.134489 0.0685361 0.0994144 0 0 0
3 3 0.108074 0.0766662 0.140959 0 0 0
4 4 0.0839503 0.0830642 0.124338 0 0 0
12 9 0.158003 0.0232038 0.164698 0 0 0
11 8 0.165062 0.0476197 0.13651 0 0 0
17 6 0.173215 0.0318896 0.116136 0 0 0
14 11 0.197391 0.0696803 0.138782 0 0 0
18 13 0.21881 0.0521016 0.136862 0 0 0
19 13 0.196647 0.0859005 0.161316 0 0 0
20 13 0.201674 0.0854177 0.1163 0 0 0
13 10 0.139102 0.99777 0.159034 0 -1 0
2 2 0.108041 0.0772658 0.177922 0 0 0
9 6 0.089504 0.0962069 0.18308 0 0 0
7 5 0.116567 0.0274661 0.184938 0 0 0
1 1 0.0965391 0.0429 0.190993 0 0 0
5 5 0.0768764 0.0351549 0.175848 0 0 0
8 6 0.131935 0.0851582 0.18771 0 0 0
6 5 0.0932752 0.0414268 0.216745 0 0 0
15 10 0.165358 0.0296794 0.194536 0 0 0
ITEM: TIMESTEP
44000
ITEM: NUMBER OF ATOMS
20
ITEM: BOX BOUNDS
0 40
0 40
0 40
ITEM: ATOMS id type xs ys zs ix iy iz
2 2 0.105825 0.0682382 0.127396 0 0 0
7 5 0.10011 0.0289692 0.159989 0 0 0
1 1 0.0861763 0.037283 0.139674 0 0 0
5 5 0.0853029 0.0156978 0.125206 0 0 0
8 6 0.108656 0.0829104 0.149884 0 0 0
6 5 0.064861 0.0447408 0.152559 0 0 0
9 6 0.0925666 0.081168 0.107748 0 0 0
10 7 0.165173 0.0545237 0.138476 0 0 0
3 3 0.139625 0.0615091 0.116246 0 0 0
4 4 0.146998 0.0613072 0.0862613 0 0 0
16 12 0.187047 0.055002 0.126537 0 0 0
12 9 0.133485 0.0368532 0.191554 0 0 0
13 10 0.123385 0.00861672 0.186897 0 0 0
15 10 0.114894 0.0593436 0.203961 0 0 0
19 13 0.1644 0.101288 0.189755 0 0 0
11 8 0.165667 0.0479614 0.173699 0 0 0
18 13 0.177426 0.0740855 0.220389 0 0 0
17 6 0.182881 0.0272439 0.175561 0 0 0
14 11 0.17933 0.0780893 0.19297 0 0 0
20 13 0.20603 0.0814203 0.18608 0 0 0
ITEM: TIMESTEP
46000
ITEM: NUMBER OF ATOMS
20
ITEM: BOX BOUNDS
0 40
0 40
0 40
ITEM: ATOMS id type xs ys zs ix iy iz
8 6 0.0973411 0.0595679 0.142723 0 0 0
19 13 0.120379 0.10889 0.132018 0 0 0
11 8 0.163079 0.0773576 0.149689 0 0 0
18 13 0.157909 0.128987 0.146814 0 0 0
14 11 0.148129 0.108393 0.130949 0 0 0
2 2 0.10045 0.0327642 0.14177 0 0 0
9 6 0.0806126 0.020062 0.128575 0 0 0
10 7 0.160136 0.0456085 0.130872 0 0 0
3 3 0.13477 0.0242197 0.12719 0 0 0
20 13 0.158403 0.112434 0.105462 0 0 0
17 6 0.188409 0.082894 0.157222 0 0 0
16 12 0.180794 0.0341328 0.122945 0 0 0
4 4 0.137314 0.995318 0.11561 0 -1 0
7 5 0.112748 0.0388622 0.188149 0 0 0
1 1 0.0988107 0.020417 0.176252 0 0 0
6 5 0.075278 0.0198614 0.187293 0 0 0
12 9 0.144986 0.0735137 0.18544 0 0 0
13 10 0.152775 0.0481139 0.203033 0 0 0
15 10 0.118216 0.0898509 0.189776 0 0 0
5 5 0.113719 0.999388 0.17965 0 -1 0
ITEM: TIMESTEP
48000
ITEM: NUMBER OF ATOMS
20
ITEM: BOX BOUNDS
0 40
0 40
0 40
ITEM: ATOMS id type xs ys zs ix iy iz
8 6 0.102756 0.077345 0.153311 0 0 0
19 13 0.119632 0.0711298 0.10019 0 0 0
11 8 0.149229 0.0352476 0.128961 0 0 0
14 11 0.134208 0.0483246 0.0939538 0 0 0
10 7 0.122797 0.0170545 0.146784 0 0 0
20 13 0.119621 0.0283304 0.0813487 0 0 0
18 13 0.153922 0.0552961 0.0756725 0 0 0
12 9 0.169359 0.0661419 0.143892 0 0 0
15 10 0.169012 0.0936545 0.129042 0 0 0
17 6 0.168396 0.0169455 0.123795 0 0 0
16 12 0.122675 0.99233 0.143629 0 -1 0
2 2 0.101447 0.0657482 0.177659 0 0 0
9 6 0.078816 0.068605 0.192104 0 0 0
3 3 0.104307 0.0280706 0.17127 0 0 0
4 4 0.0889582 0.00784087 0.188197 0 0 0
7 5 0.151953 0.0755795 0.188743 0 0 0
1 1 0.128721 0.081315 0.198911 0 0 0
6 5 0.127807 0.10721 0.196773 0 0 0
5 5 0.132492 0.0737373 0.223495 0 0 0
13 10 0.181963 0.0605156 0.172701 0 0 0
ITEM: TIMESTEP
50000
ITEM: NUMBER OF ATOMS
20
ITEM: BOX BOUNDS
0 40
0 40
0 40
ITEM: ATOMS id type xs ys zs ix iy iz
8 6 0.125163 0.0990483 0.15893 0 0 0
10 7 0.121788 0.0368785 0.126845 0 0 0
16 12 0.113873 0.022104 0.108397 0 0 0
3 3 0.0974684 0.0546569 0.142628 0 0 0
4 4 0.0688828 0.0487137 0.133106 0 0 0
19 13 0.159906 0.09451 0.115341 0 0 0
11 8 0.156801 0.0388474 0.130078 0 0 0
17 6 0.165465 0.0149519 0.12097 0 0 0
14 11 0.172613 0.0702048 0.110953 0 0 0
20 13 0.171962 0.0621986 0.0843652 0 0 0
18 13 0.19836 0.0762897 0.11941 0 0 0
2 2 0.106675 0.0827865 0.170009 0 0 0
7 5 0.098186 0.0545183 0.212447 0 0 0
1 1 0.11816 0.0675848 0.202137 0 0 0
6 5 0.13508 0.0485491 0.196904 0 0 0
13 10 0.153529 0.0157585 0.187652 0 0 0
5 5 0.128395 0.0847939 0.218723 0 0 0
9 6 0.0838656 0.0957462 0.176395 0 0 0
12 9 0.16913 0.0351404 0.167843 0 0 0
15 10 0.188079 0.0581976 0.177384 0 0 0
