ITEM: TIMESTEP
1
ITEM: NUMBER OF ATOMS
1024
ITEM: BOX BOUNDS pp pp pp
0.0000000000000000e+00 4.8000000000000000e+01
0.0000000000000000e+00 4.8000000000000000e+01
0.0000000000000000e+00 4.8000000000000000e+01
ITEM: ATOMS id type x y z
1 1 0 0 0
3 1 6 0 0
5 1 12 0 0
7 1 18 0 0
9 1 24 0 0
11 1 30 0 0
13 1 36 0 0
15 1 42 0 0
17 1 0 6 0
19 1 6 6 0
21 1 12 6 0
23 1 18 6 0
25 1 24 6 0
27 1 30 6 0
29 1 36 6 0
31 1 42 6 0
33 1 0 12 0
35 1 6 12 0
37 1 12 12 0
39 1 18 12 0
41 1 24 12 0
43 1 30 12 0
45 1 36 12 0
47 1 42 12 0
49 1 0 18 0
51 1 6 18 0
53 1 12 18 0
55 1 18 18 0
57 1 24 18 0
59 1 30 18 0
61 1 36 18 0
63 1 42 18 0
65 1 0 24 0
67 1 6 24 0
69 1 12 24 0
71 1 18 24 0
73 1 24 24 0
75 1 30 24 0
77 1 36 24 0
79 1 42 24 0
81 1 0 30 0
83 1 6 30 0
85 1 12 30 0
87 1 18 30 0
89 1 24 30 0
91 1 30 30 0
93 1 36 30 0
95 1 42 30 0
97 1 0 36 0
99 1 6 36 0
101 1 12 36 0
103 1 18 36 0
105 1 24 36 0
107 1 30 36 0
109 1 36 36 0
111 1 42 36 0
113 1 0 42 0
115 1 6 42 0
117 1 12 42 0
119 1 18 42 0
121 1 24 42 0
123 1 30 42 0
125 1 36 42 0
127 1 42 42 0
2 1 3 3 3
4 1 9 3 3
6 1 15 3 3
8 1 21 3 3
10 1 27 3 3
12 1 33 3 3
14 1 39 3 3
16 1 45 3 3
18 1 3 9 3
20 1 9 9 3
22 1 15 9 3
24 1 21 9 3
26 1 27 9 3
28 1 33 9 3
30 1 39 9 3
32 1 45 9 3
34 1 3 15 3
36 1 9 15 3
38 1 15 15 3
40 1 21 15 3
42 1 27 15 3
44 1 33 15 3
46 1 39 15 3
48 1 45 15 3
50 1 3 21 3
52 1 9 21 3
54 1 15 21 3
56 1 21 21 3
58 1 27 21 3
60 1 33 21 3
62 1 39 21 3
64 1 45 21 3
66 1 3 27 3
68 1 9 27 3
70 1 15 27 3
72 1 21 27 3
74 1 27 27 3
76 1 33 27 3
78 1 39 27 3
80 1 45 27 3
82 1 3 33 3
84 1 9 33 3
86 1 15 33 3
88 1 21 33 3
90 1 27 33 3
92 1 33 33 3
94 1 39 33 3
96 1 45 33 3
98 1 3 39 3
100 1 9 39 3
102 1 15 39 3
104 1 21 39 3
106 1 27 39 3
108 1 33 39 3
110 1 39 39 3
112 1 45 39 3
114 1 3 45 3
116 1 9 45 3
118 1 15 45 3
120 1 21 45 3
122 1 27 45 3
124 1 33 45 3
126 1 39 45 3
128 1 45 45 3
129 1 0 0 6
131 1 6 0 6
133 1 12 0 6
135 1 18 0 6
137 1 24 0 6
139 1 30 0 6
141 1 36 0 6
143 1 42 0 6
145 1 0 6 6
147 1 6 6 6
149 1 12 6 6
151 1 18 6 6
153 1 24 6 6
155 1 30 6 6
157 1 36 6 6
159 1 42 6 6
161 1 0 12 6
163 1 6 12 6
165 1 12 12 6
167 1 18 12 6
169 1 24 12 6
171 1 30 12 6
173 1 36 12 6
175 1 42 12 6
177 1 0 18 6
179 1 6 18 6
181 1 12 18 6
183 1 18 18 6
185 1 24 18 6
187 1 30 18 6
189 1 36 18 6
191 1 42 18 6
193 1 0 24 6
195 1 6 24 6
197 1 12 24 6
199 1 18 24 6
201 1 24 24 6
203 1 30 24 6
205 1 36 24 6
207 1 42 24 6
209 1 0 30 6
211 1 6 30 6
213 1 12 30 6
215 1 18 30 6
217 1 24 30 6
219 1 30 30 6
221 1 36 30 6
223 1 42 30 6
225 1 0 36 6
227 1 6 36 6
229 1 12 36 6
231 1 18 36 6
233 1 24 36 6
235 1 30 36 6
237 1 36 36 6
239 1 42 36 6
241 1 0 42 6
243 1 6 42 6
245 1 12 42 6
247 1 18 42 6
249 1 24 42 6
251 1 30 42 6
253 1 36 42 6
255 1 42 42 6
130 1 3 3 9
132 1 9 3 9
134 1 15 3 9
136 1 21 3 9
138 1 27 3 9
140 1 33 3 9
142 1 39 3 9
144 1 45 3 9
146 1 3 9 9
148 1 9 9 9
150 1 15 9 9
152 1 21 9 9
154 1 27 9 9
156 1 33 9 9
158 1 39 9 9
160 1 45 9 9
162 1 3 15 9
164 1 9 15 9
166 1 15 15 9
168 1 21 15 9
170 1 27 15 9
172 1 33 15 9
174 1 39 15 9
176 1 45 15 9
178 1 3 21 9
180 1 9 21 9
182 1 15 21 9
184 1 21 21 9
186 1 27 21 9
188 1 33 21 9
190 1 39 21 9
192 1 45 21 9
194 1 3 27 9
196 1 9 27 9
198 1 15 27 9
200 1 21 27 9
202 1 27 27 9
204 1 33 27 9
206 1 39 27 9
208 1 45 27 9
210 1 3 33 9
212 1 9 33 9
214 1 15 33 9
216 1 21 33 9
218 1 27 33 9
220 1 33 33 9
222 1 39 33 9
224 1 45 33 9
226 1 3 39 9
228 1 9 39 9
230 1 15 39 9
232 1 21 39 9
234 1 27 39 9
236 1 33 39 9
238 1 39 39 9
240 1 45 39 9
242 1 3 45 9
244 1 9 45 9
246 1 15 45 9
248 1 21 45 9
250 1 27 45 9
252 1 33 45 9
254 1 39 45 9
256 1 45 45 9
257 1 0 0 12
259 1 6 0 12
261 1 12 0 12
263 1 18 0 12
265 1 24 0 12
267 1 30 0 12
269 1 36 0 12
271 1 42 0 12
273 1 0 6 12
275 1 6 6 12
277 1 12 6 12
279 1 18 6 12
281 1 24 6 12
283 1 30 6 12
285 1 36 6 12
287 1 42 6 12
289 1 0 12 12
291 1 6 12 12
293 1 12 12 12
295 1 18 12 12
297 1 24 12 12
299 1 30 12 12
301 1 36 12 12
303 1 42 12 12
305 1 0 18 12
307 1 6 18 12
309 1 12 18 12
311 1 18 18 12
313 1 24 18 12
315 1 30 18 12
317 1 36 18 12
319 1 42 18 12
321 1 0 24 12
323 1 6 24 12
325 1 12 24 12
327 1 18 24 12
329 1 24 24 12
331 1 30 24 12
333 1 36 24 12
335 1 42 24 12
337 1 0 30 12
339 1 6 30 12
341 1 12 30 12
343 1 18 30 12
345 1 24 30 12
347 1 30 30 12
349 1 36 30 12
351 1 42 30 12
353 1 0 36 12
355 1 6 36 12
357 1 12 36 12
359 1 18 36 12
361 1 24 36 12
363 1 30 36 12
365 1 36 36 12
367 1 42 36 12
369 1 0 42 12
371 1 6 42 12
373 1 12 42 12
375 1 18 42 12
377 1 24 42 12
379 1 30 42 12
381 1 36 42 12
383 1 42 42 12
258 1 3 3 15
260 1 9 3 15
262 1 15 3 15
264 1 21 3 15
266 1 27 3 15
268 1 33 3 15
270 1 39 3 15
272 1 45 3 15
274 1 3 9 15
276 1 9 9 15
278 1 15 9 15
280 1 21 9 15
282 1 27 9 15
284 1 33 9 15
286 1 39 9 15
288 1 45 9 15
290 1 3 15 15
292 1 9 15 15
294 1 15 15 15
296 1 21 15 15
298 1 27 15 15
300 1 33 15 15
302 1 39 15 15
304 1 45 15 15
306 1 3 21 15
308 1 9 21 15
310 1 15 21 15
312 1 21 21 15
314 1 27 21 15
316 1 33 21 15
318 1 39 21 15
320 1 45 21 15
322 1 3 27 15
324 1 9 27 15
326 1 15 27 15
328 1 21 27 15
330 1 27 27 15
332 1 33 27 15
334 1 39 27 15
336 1 45 27 15
338 1 3 33 15
340 1 9 33 15
342 1 15 33 15
344 1 21 33 15
346 1 27 33 15
348 1 33 33 15
350 1 39 33 15
352 1 45 33 15
354 1 3 39 15
356 1 9 39 15
358 1 15 39 15
360 1 21 39 15
362 1 27 39 15
364 1 33 39 15
366 1 39 39 15
368 1 45 39 15
370 1 3 45 15
372 1 9 45 15
374 1 15 45 15
376 1 21 45 15
378 1 27 45 15
380 1 33 45 15
382 1 39 45 15
384 1 45 45 15
385 1 0 0 18
387 1 6 0 18
389 1 12 0 18
391 1 18 0 18
393 1 24 0 18
395 1 30 0 18
397 1 36 0 18
399 1 42 0 18
401 1 0 6 18
403 1 6 6 18
405 1 12 6 18
407 1 18 6 18
409 1 24 6 18
411 1 30 6 18
413 1 36 6 18
415 1 42 6 18
417 1 0 12 18
419 1 6 12 18
421 1 12 12 18
423 1 18 12 18
425 1 24 12 18
427 1 30 12 18
429 1 36 12 18
431 1 42 12 18
433 1 0 18 18
435 1 6 18 18
437 1 12 18 18
439 1 18 18 18
441 1 24 18 18
443 1 30 18 18
445 1 36 18 18
447 1 42 18 18
449 1 0 24 18
451 1 6 24 18
453 1 12 24 18
455 1 18 24 18
457 1 24 24 18
459 1 30 24 18
461 1 36 24 18
463 1 42 24 18
465 1 0 30 18
467 1 6 30 18
469 1 12 30 18
471 1 18 30 18
473 1 24 30 18
475 1 30 30 18
477 1 36 30 18
479 1 42 30 18
481 1 0 36 18
483 1 6 36 18
485 1 12 36 18
487 1 18 36 18
489 1 24 36 18
491 1 30 36 18
493 1 36 36 18
495 1 42 36 18
497 1 0 42 18
499 1 6 42 18
501 1 12 42 18
503 1 18 42 18
505 1 24 42 18
507 1 30 42 18
509 1 36 42 18
511 1 42 42 18
386 1 3 3 21
388 1 9 3 21
390 1 15 3 21
392 1 21 3 21
394 1 27 3 21
396 1 33 3 21
398 1 39 3 21
400 1 45 3 21
402 1 3 9 21
404 1 9 9 21
406 1 15 9 21
408 1 21 9 21
410 1 27 9 21
412 1 33 9 21
414 1 39 9 21
416 1 45 9 21
418 1 3 15 21
420 1 9 15 21
422 1 15 15 21
424 1 21 15 21
426 1 27 15 21
428 1 33 15 21
430 1 39 15 21
432 1 45 15 21
434 1 3 21 21
436 1 9 21 21
438 1 15 21 21
440 1 21 21 21
442 1 27 21 21
444 1 33 21 21
446 1 39 21 21
448 1 45 21 21
450 1 3 27 21
452 1 9 27 21
454 1 15 27 21
456 1 21 27 21
458 1 27 27 21
460 1 33 27 21
462 1 39 27 21
464 1 45 27 21
466 1 3 33 21
468 1 9 33 21
470 1 15 33 21
472 1 21 33 21
474 1 27 33 21
476 1 33 33 21
478 1 39 33 21
480 1 45 33 21
482 1 3 39 21
484 1 9 39 21
486 1 15 39 21
488 1 21 39 21
490 1 27 39 21
492 1 33 39 21
494 1 39 39 21
496 1 45 39 21
498 1 3 45 21
500 1 9 45 21
502 1 15 45 21
504 1 21 45 21
506 1 27 45 21
508 1 33 45 21
510 1 39 45 21
512 1 45 45 21
513 1 0 0 24
515 1 6 0 24
517 1 12 0 24
519 1 18 0 24
521 1 24 0 24
523 1 30 0 24
525 1 36 0 24
527 1 42 0 24
529 1 0 6 24
531 1 6 6 24
533 1 12 6 24
535 1 18 6 24
537 1 24 6 24
539 1 30 6 24
541 1 36 6 24
543 1 42 6 24
545 1 0 12 24
547 1 6 12 24
549 1 12 12 24
551 1 18 12 24
553 1 24 12 24
555 1 30 12 24
557 1 36 12 24
559 1 42 12 24
561 1 0 18 24
563 1 6 18 24
565 1 12 18 24
567 1 18 18 24
569 1 24 18 24
571 1 30 18 24
573 1 36 18 24
575 1 42 18 24
577 1 0 24 24
579 1 6 24 24
581 1 12 24 24
583 1 18 24 24
585 1 24 24 24
587 1 30 24 24
589 1 36 24 24
591 1 42 24 24
593 1 0 30 24
595 1 6 30 24
597 1 12 30 24
599 1 18 30 24
601 1 24 30 24
603 1 30 30 24
605 1 36 30 24
607 1 42 30 24
609 1 0 36 24
611 1 6 36 24
613 1 12 36 24
615 1 18 36 24
617 1 24 36 24
619 1 30 36 24
621 1 36 36 24
623 1 42 36 24
625 1 0 42 24
627 1 6 42 24
629 1 12 42 24
631 1 18 42 24
633 1 24 42 24
635 1 30 42 24
637 1 36 42 24
639 1 42 42 24
514 1 3 3 27
516 1 9 3 27
518 1 15 3 27
520 1 21 3 27
522 1 27 3 27
524 1 33 3 27
526 1 39 3 27
528 1 45 3 27
530 1 3 9 27
532 1 9 9 27
534 1 15 9 27
536 1 21 9 27
538 1 27 9 27
540 1 33 9 27
542 1 39 9 27
544 1 45 9 27
546 1 3 15 27
548 1 9 15 27
550 1 15 15 27
552 1 21 15 27
554 1 27 15 27
556 1 33 15 27
558 1 39 15 27
560 1 45 15 27
562 1 3 21 27
564 1 9 21 27
566 1 15 21 27
568 1 21 21 27
570 1 27 21 27
572 1 33 21 27
574 1 39 21 27
576 1 45 21 27
578 1 3 27 27
580 1 9 27 27
582 1 15 27 27
584 1 21 27 27
586 1 27 27 27
588 1 33 27 27
590 1 39 27 27
592 1 45 27 27
594 1 3 33 27
596 1 9 33 27
598 1 15 33 27
600 1 21 33 27
602 1 27 33 27
604 1 33 33 27
606 1 39 33 27
608 1 45 33 27
610 1 3 39 27
612 1 9 39 27
614 1 15 39 27
616 1 21 39 27
618 1 27 39 27
620 1 33 39 27
622 1 39 39 27
624 1 45 39 27
626 1 3 45 27
628 1 9 45 27
630 1 15 45 27
632 1 21 45 27
634 1 27 45 27
636 1 33 45 27
638 1 39 45 27
640 1 45 45 27
641 1 0 0 30
643 1 6 0 30
645 1 12 0 30
647 1 18 0 30
649 1 24 0 30
651 1 30 0 30
653 1 36 0 30
655 1 42 0 30
657 1 0 6 30
659 1 6 6 30
661 1 12 6 30
663 1 18 6 30
665 1 24 6 30
667 1 30 6 30
669 1 36 6 30
671 1 42 6 30
673 1 0 12 30
675 1 6 12 30
677 1 12 12 30
679 1 18 12 30
681 1 24 12 30
683 1 30 12 30
685 1 36 12 30
687 1 42 12 30
689 1 0 18 30
691 1 6 18 30
693 1 12 18 30
695 1 18 18 30
697 1 24 18 30
699 1 30 18 30
701 1 36 18 30
703 1 42 18 30
705 1 0 24 30
707 1 6 24 30
709 1 12 24 30
711 1 18 24 30
713 1 24 24 30
715 1 30 24 30
717 1 36 24 30
719 1 42 24 30
721 1 0 30 30
723 1 6 30 30
725 1 12 30 30
727 1 18 30 30
729 1 24 30 30
731 1 30 30 30
733 1 36 30 30
735 1 42 30 30
737 1 0 36 30
739 1 6 36 30
741 1 12 36 30
743 1 18 36 30
745 1 24 36 30
747 1 30 36 30
749 1 36 36 30
751 1 42 36 30
753 1 0 42 30
755 1 6 42 30
757 1 12 42 30
759 1 18 42 30
761 1 24 42 30
763 1 30 42 30
765 1 36 42 30
767 1 42 42 30
642 1 3 3 33
644 1 9 3 33
646 1 15 3 33
648 1 21 3 33
650 1 27 3 33
652 1 33 3 33
654 1 39 3 33
656 1 45 3 33
658 1 3 9 33
660 1 9 9 33
662 1 15 9 33
664 1 21 9 33
666 1 27 9 33
668 1 33 9 33
670 1 39 9 33
672 1 45 9 33
674 1 3 15 33
676 1 9 15 33
678 1 15 15 33
680 1 21 15 33
682 1 27 15 33
684 1 33 15 33
686 1 39 15 33
688 1 45 15 33
690 1 3 21 33
692 1 9 21 33
694 1 15 21 33
696 1 21 21 33
698 1 27 21 33
700 1 33 21 33
702 1 39 21 33
704 1 45 21 33
706 1 3 27 33
708 1 9 27 33
710 1 15 27 33
712 1 21 27 33
714 1 27 27 33
716 1 33 27 33
718 1 39 27 33
720 1 45 27 33
722 1 3 33 33
724 1 9 33 33
726 1 15 33 33
728 1 21 33 33
730 1 27 33 33
732 1 33 33 33
734 1 39 33 33
736 1 45 33 33
738 1 3 39 33
740 1 9 39 33
742 1 15 39 33
744 1 21 39 33
746 1 27 39 33
748 1 33 39 33
750 1 39 39 33
752 1 45 39 33
754 1 3 45 33
756 1 9 45 33
758 1 15 45 33
760 1 21 45 33
762 1 27 45 33
764 1 33 45 33
766 1 39 45 33
768 1 45 45 33
769 1 0 0 36
771 1 6 0 36
773 1 12 0 36
775 1 18 0 36
777 1 24 0 36
779 1 30 0 36
781 1 36 0 36
783 1 42 0 36
785 1 0 6 36
787 1 6 6 36
789 1 12 6 36
791 1 18 6 36
793 1 24 6 36
795 1 30 6 36
797 1 36 6 36
799 1 42 6 36
801 1 0 12 36
803 1 6 12 36
805 1 12 12 36
807 1 18 12 36
809 1 24 12 36
811 1 30 12 36
813 1 36 12 36
815 1 42 12 36
817 1 0 18 36
819 1 6 18 36
821 1 12 18 36
823 1 18 18 36
825 1 24 18 36
827 1 30 18 36
829 1 36 18 36
831 1 42 18 36
833 1 0 24 36
835 1 6 24 36
837 1 12 24 36
839 1 18 24 36
841 1 24 24 36
843 1 30 24 36
845 1 36 24 36
847 1 42 24 36
849 1 0 30 36
851 1 6 30 36
853 1 12 30 36
855 1 18 30 36
857 1 24 30 36
859 1 30 30 36
861 1 36 30 36
863 1 42 30 36
865 1 0 36 36
867 1 6 36 36
869 1 12 36 36
871 1 18 36 36
873 1 24 36 36
875 1 30 36 36
877 1 36 36 36
879 1 42 36 36
881 1 0 42 36
883 1 6 42 36
885 1 12 42 36
887 1 18 42 36
889 1 24 42 36
891 1 30 42 36
893 1 36 42 36
895 1 42 42 36
770 1 3 3 39
772 1 9 3 39
774 1 15 3 39
776 1 21 3 39
778 1 27 3 39
780 1 33 3 39
782 1 39 3 39
784 1 45 3 39
786 1 3 9 39
788 1 9 9 39
790 1 15 9 39
792 1 21 9 39
794 1 27 9 39
796 1 33 9 39
798 1 39 9 39
800 1 45 9 39
802 1 3 15 39
804 1 9 15 39
806 1 15 15 39
808 1 21 15 39
810 1 27 15 39
812 1 33 15 39
814 1 39 15 39
816 1 45 15 39
818 1 3 21 39
820 1 9 21 39
822 1 15 21 39
824 1 21 21 39
826 1 27 21 39
828 1 33 21 39
830 1 39 21 39
832 1 45 21 39
834 1 3 27 39
836 1 9 27 39
838 1 15 27 39
840 1 21 27 39
842 1 27 27 39
844 1 33 27 39
846 1 39 27 39
848 1 45 27 39
850 1 3 33 39
852 1 9 33 39
854 1 15 33 39
856 1 21 33 39
858 1 27 33 39
860 1 33 33 39
862 1 39 33 39
864 1 45 33 39
866 1 3 39 39
868 1 9 39 39
870 1 15 39 39
872 1 21 39 39
874 1 27 39 39
876 1 33 39 39
878 1 39 39 39
880 1 45 39 39
882 1 3 45 39
884 1 9 45 39
886 1 15 45 39
888 1 21 45 39
890 1 27 45 39
892 1 33 45 39
894 1 39 45 39
896 1 45 45 39
897 1 0 0 42
899 1 6 0 42
901 1 12 0 42
903 1 18 0 42
905 1 24 0 42
907 1 30 0 42
909 1 36 0 42
911 1 42 0 42
913 1 0 6 42
915 1 6 6 42
917 1 12 6 42
919 1 18 6 42
921 1 24 6 42
923 1 30 6 42
925 1 36 6 42
927 1 42 6 42
929 1 0 12 42
931 1 6 12 42
933 1 12 12 42
935 1 18 12 42
937 1 24 12 42
939 1 30 12 42
941 1 36 12 42
943 1 42 12 42
945 1 0 18 42
947 1 6 18 42
949 1 12 18 42
951 1 18 18 42
953 1 24 18 42
955 1 30 18 42
957 1 36 18 42
959 1 42 18 42
961 1 0 24 42
963 1 6 24 42
965 1 12 24 42
967 1 18 24 42
969 1 24 24 42
971 1 30 24 42
973 1 36 24 42
975 1 42 24 42
977 1 0 30 42
979 1 6 30 42
981 1 12 30 42
983 1 18 30 42
985 1 24 30 42
987 1 30 30 42
989 1 36 30 42
991 1 42 30 42
993 1 0 36 42
995 1 6 36 42
997 1 12 36 42
999 1 18 36 42
1001 1 24 36 42
1003 1 30 36 42
1005 1 36 36 42
1007 1 42 36 42
1009 1 0 42 42
1011 1 6 42 42
1013 1 12 42 42
1015 1 18 42 42
1017 1 24 42 42
1019 1 30 42 42
1021 1 36 42 42
1023 1 42 42 42
898 1 3 3 45
900 1 9 3 45
902 1 15 3 45
904 1 21 3 45
906 1 27 3 45
908 1 33 3 45
910 1 39 3 45
912 1 45 3 45
914 1 3 9 45
916 1 9 9 45
918 1 15 9 45
920 1 21 9 45
922 1 27 9 45
924 1 33 9 45
926 1 39 9 45
928 1 45 9 45
930 1 3 15 45
932 1 9 15 45
934 1 15 15 45
936 1 21 15 45
938 1 27 15 45
940 1 33 15 45
942 1 39 15 45
944 1 45 15 45
946 1 3 21 45
948 1 9 21 45
950 1 15 21 45
952 1 21 21 45
954 1 27 21 45
956 1 33 21 45
958 1 39 21 45
960 1 45 21 45
962 1 3 27 45
964 1 9 27 45
966 1 15 27 45
968 1 21 27 45
970 1 27 27 45
972 1 33 27 45
974 1 39 27 45
976 1 45 27 45
978 1 3 33 45
980 1 9 33 45
982 1 15 33 45
984 1 21 33 45
986 1 27 33 45
988 1 33 33 45
990 1 39 33 45
992 1 45 33 45
994 1 3 39 45
996 1 9 39 45
998 1 15 39 45
1000 1 21 39 45
1002 1 27 39 45
1004 1 33 39 45
1006 1 39 39 45
1008 1 45 39 45
1010 1 3 45 45
1012 1 9 45 45
1014 1 15 45 45
1016 1 21 45 45
1018 1 27 45 45
1020 1 33 45 45
1022 1 39 45 45
1024 1 45 45 45
ITEM: TIMESTEP
2
ITEM: NUMBER OF ATOMS
1024
ITEM: BOX BOUNDS pp pp pp
0.0000000000000000e+00 4.8000000000000000e+01
0.0000000000000000e+00 4.8000000000000000e+01
0.0000000000000000e+00 4.8000000000000000e+01
ITEM: ATOMS id type x y z
1 1 0.0086425 0.00608894 -0.00157505
3 1 6.00376 -0.000517816 0.010617
5 1 11.9947 0.00264628 0.00875147
7 1 17.9955 -0.00334736 -0.00526026
9 1 24.0006 0.000175582 0.00256166
11 1 30.0011 0.0011151 0.00315822
13 1 35.9983 -0.00435673 -0.00778441
15 1 42.0017 0.00246928 -0.000576315
17 1 0.00226887 6.00088 0.00159847
19 1 6.00336 6.003 0.00208357
21 1 11.9966 5.99537 0.00513323
23 1 17.9958 5.99699 0.000639151
25 1 24.0052 5.99576 0.00320331
27 1 30.0027 5.99631 0.00656956
29 1 35.9998 5.99705 0.00256863
31 1 42.0053 6.00872 0.00610093
33 1 -0.0012393 12.0005 0.000602163
35 1 5.99745 12.0019 0.00155714
37 1 11.9982 12.0061 -0.000920391
39 1 18.0048 12.0033 0.00512173
41 1 24.0002 11.9954 0.000506345
43 1 29.9979 11.9949 -0.000556214
45 1 36.0027 12.0008 -0.00425686
47 1 41.9977 12.0045 0.000731179
49 1 -0.000779834 18.0044 -0.00431816
51 1 5.99953 17.9994 0.000550755
53 1 11.9975 18.0066 -0.000501436
55 1 18.0076 17.999 -0.0073662
57 1 24.0018 17.997 -0.00153631
59 1 29.9991 18.0042 -0.00440926
61 1 36.0028 18.0011 -0.00291956
63 1 41.9989 17.9969 -0.00560693
65 1 0.00190797 23.9932 0.000209091
67 1 5.99932 24.0034 0.00452924
69 1 12.001 24.0114 -0.00363481
71 1 17.9952 24.0025 0.00135267
73 1 23.9987 23.9984 -0.000376028
75 1 30.0048 24.0059 -0.00180582
77 1 35.998 23.9996 0.000875679
79 1 42.002 24.0071 -0.000984023
81 1 0.00503488 30.0007 0.00499057
83 1 6.0007 29.9981 0.00395167
85 1 11.9999 29.9993 -0.00555632
87 1 17.9965 29.9984 0.000296513
89 1 23.9999 29.9919 -0.00451955
91 1 29.9936 29.9996 -0.00106264
93 1 35.9998 29.9948 0.00263068
95 1 41.9973 29.9912 0.00323608
97 1 0.000871435 36.0002 -0.0132954
99 1 5.9945 35.9931 -0.003393
101 1 11.9985 36.0051 0.00777632
103 1 18.0014 36.0025 -0.00753765
105 1 23.9947 35.9956 0.00354543
107 1 30.0036 36.0055 0.00509497
109 1 36.0011 36.0053 0.00468744
111 1 42.0029 35.9945 0.00143882
113 1 -0.00481019 41.9928 -0.00458165
115 1 5.99838 42.0028 0.0022248
117 1 11.9953 41.9968 -0.00721666
119 1 17.9906 42.0009 0.000791174
121 1 23.9954 42.0056 0.00233015
123 1 29.9938 42.0005 0.00347446
125 1 36.003 41.9961 -0.00730246
127 1 42.004 42.0023 0.00244484
2 1 3.00467 2.98959 2.99896
4 1 8.99885 2.99583 2.99555
6 1 14.9991 2.99698 2.99749
8 1 21.0003 2.99792 2.99876
10 1 26.9977 2.99876 3.00086
12 1 32.9994 3.00142 2.99651
14 1 39.0064 3.00215 3.00237
16 1 44.9967 2.99609 3.00059
18 1 3.00197 8.99566 3.00737
20 1 8.99839 8.99564 2.99418
22 1 14.9985 9.00393 2.9972
24 1 21.006 8.99603 3.00131
26 1 26.9994 8.99443 2.99572
28 1 32.9924 8.99714 2.99361
30 1 38.996 8.99821 2.99639
32 1 44.998 8.99301 3.0037
34 1 2.99954 15.0051 2.99419
36 1 8.99736 14.9966 3.0016
38 1 14.9953 14.9921 2.995
40 1 20.9913 15.0005 2.99695
42 1 26.9998 14.9994 3.00275
44 1 32.9992 15.0039 2.99951
46 1 39.0023 14.9952 3.00635
48 1 45.0027 15.0046 2.99509
50 1 2.99583 21.0049 2.99877
52 1 9.00071 20.9983 2.99784
54 1 15.0011 20.9989 3.00487
56 1 20.9993 21.0023 2.99573
58 1 27.0007 20.9967 3.00226
60 1 32.9973 21.0141 2.99452
62 1 38.9986 20.9956 2.99883
64 1 45.005 21.0055 2.9916
66 1 3.00482 26.9942 3.00064
68 1 9.01418 26.9899 2.99717
70 1 15.0015 27.0044 3.00523
72 1 21.0015 26.9988 3.00069
74 1 27.0042 27.001 3.00027
76 1 33.0053 27.0054 2.99857
78 1 38.9905 27.0014 3.00271
80 1 45.0026 26.9967 2.99131
82 1 3.00614 33.0034 2.9944
84 1 8.99876 32.9891 2.99408
86 1 15 33.0035 2.99568
88 1 21.0001 32.9942 2.99675
90 1 27.0037 32.9958 3.00523
92 1 32.9924 33.0041 3.00519
94 1 38.9917 33.0022 3.00081
96 1 45.009 32.9993 3.00266
98 1 2.99892 39.0073 2.99976
100 1 8.99949 39.0006 3.00076
102 1 14.994 39.0048 2.99884
104 1 21.0057 39.0018 2.99539
106 1 26.998 39 2.99915
108 1 32.9938 38.9988 2.99951
110 1 38.9971 38.9996 2.99644
112 1 45.0011 39.0015 3.00365
114 1 3.00381 44.9994 2.99683
116 1 9.0009 44.9933 3.00169
118 1 14.9964 44.9985 2.99846
120 1 20.989 44.9967 2.99598
122 1 27.0026 45.0009 3.00135
124 1 32.9906 44.9997 2.9982
126 1 38.996 45.0007 2.99564
128 1 44.9998 45 3.00663
129 1 -0.000750679 -0.00114235 5.99391
131 1 5.99433 0.00242244 5.99694
133 1 12.0033 0.00179411 6.00362
135 1 18.0041 -0.0017257 6.00339
137 1 23.9992 -0.00202997 5.99874
139 1 30.0025 -0.000224496 5.99764
141 1 36.0045 0.00210801 6.00691
143 1 42.0016 -0.0029253 6.00036
145 1 -0.00398034 5.99867 5.99967
147 1 5.99193 5.99841 5.99778
149 1 12.0017 6.00498 5.99589
151 1 18.004 5.99868 5.99432
153 1 23.9982 5.99959 5.9961
155 1 29.9987 5.9974 6.00304
157 1 36.0022 5.99941 6.00615
159 1 42.0063 5.99439 5.99919
161 1 -0.0100122 12.0066 6.00859
163 1 5.99905 11.996 5.99871
165 1 12.0085 12.0056 6.00559
167 1 18.0027 11.9959 5.99786
169 1 23.9967 11.9994 6.00553
171 1 30.0005 12.0001 6.00505
173 1 36.0121 12.0002 5.99867
175 1 41.997 12.0055 6.00022
177 1 -0.00155767 17.9916 5.9995
179 1 5.99762 17.9919 6.0006
181 1 12.0062 17.9997 5.99859
183 1 17.9974 18.0007 6.00535
185 1 24.0029 17.9969 5.99813
187 1 30.0021 17.9968 6.00093
189 1 35.9989 17.9999 5.99377
191 1 42.0023 17.9999 5.99612
193 1 -0.00143784 23.9989 5.99554
195 1 5.99976 24.003 5.99629
197 1 11.9985 24.0045 5.99243
199 1 17.9902 24.0003 6.00461
201 1 23.9987 23.998 6.00043
203 1 30.0098 23.9996 5.99675
205 1 36.0075 24.0037 6.00396
207 1 42.0051 23.9977 5.99947
209 1 -0.00397997 30.0003 6.0064
211 1 6.00023 30.0058 5.99695
213 1 12.0031 29.9996 6.00556
215 1 17.9991 29.9969 5.99578
217 1 24.0017 29.9973 6.00727
219 1 30.0067 29.9961 5.99347
221 1 35.9862 30.0102 6.00617
223 1 41.9987 29.9992 6.00743
225 1 -0.00608469 36.0092 6.00269
227 1 6.00688 36.0005 6.00306
229 1 12.0008 35.9993 6
231 1 18.001 36.0069 6.00048
233 1 23.997 35.9964 5.99541
235 1 29.9976 35.9925 6.00073
237 1 35.9964 36.0025 6.00495
239 1 42.0016 36.0069 6.00495
241 1 -0.00170669 42.0034 5.99737
243 1 5.99859 41.9983 6.00095
245 1 11.9984 42.001 6.00398
247 1 18.0136 42.0005 5.99914
249 1 23.9974 41.9975 6.00727
251 1 29.9938 41.997 6.00701
253 1 36.0043 42.0049 6.00662
255 1 41.9971 41.9955 6.00286
130 1 2.99705 2.99883 9.01183
132 1 9.00393 3.00354 8.99626
134 1 14.9985 3.00502 8.99175
136 1 21.0022 2.99701 9.00469
138 1 26.9961 3.00292 8.99581
140 1 32.9968 3.00229 9.00043
142 1 38.9986 3.00034 8.99833
144 1 44.999 3.00013 8.99552
146 1 3.0059 9.00163 8.99458
148 1 9.00215 8.99951 8.99859
150 1 15.0025 9.00135 8.99788
152 1 20.9956 9.0047 9.00664
154 1 27.0005 8.99816 8.99865
156 1 33.0015 8.9938 8.99886
158 1 38.9969 9.00129 8.99929
160 1 45.0044 9.00866 9.00899
162 1 3.00214 15.0042 8.99904
164 1 9.00465 14.9994 8.99302
166 1 15.0032 14.9955 8.99184
168 1 21.0036 14.9976 8.9992
170 1 27.0044 14.9966 9.0131
172 1 32.9919 15.0013 8.99869
174 1 38.9974 14.9977 8.99957
176 1 44.9961 15.0058 9.00067
178 1 2.9994 21.003 8.9996
180 1 8.9998 20.9972 9.00436
182 1 14.989 20.9979 8.99877
184 1 21.0053 21.0028 9.00316
186 1 26.9993 21.0066 8.99245
188 1 32.9991 20.9984 8.9906
190 1 39.0096 20.9952 8.99515
192 1 45.0007 21.0011 9.00352
194 1 2.99582 26.9922 9.00173
196 1 9.00074 26.9975 8.99358
198 1 14.9955 27.0063 9.00399
200 1 21.006 26.9972 8.99865
202 1 26.9995 26.9956 9.00048
204 1 32.9988 27.0027 8.99972
206 1 39.0004 27.0031 8.99487
208 1 44.9975 27.0004 8.99629
210 1 3.00335 33.0003 9.00017
212 1 8.99901 33.0005 8.99167
214 1 14.9932 33 9.00484
216 1 21.0075 33.0021 8.99658
218 1 26.9959 32.9973 8.99722
220 1 32.9968 32.9933 9.0012
222 1 39.0023 32.9972 9.00134
224 1 44.9928 32.9944 9.00315
226 1 3.00777 38.9956 9.00494
228 1 8.99593 39.0078 9.00469
230 1 15.0001 39.0041 8.99936
232 1 21.0034 38.9995 9.0087
234 1 26.9995 39.0075 8.9988
236 1 33.0019 39.0041 8.99674
238 1 38.9999 39.0035 8.99769
240 1 45.0015 38.9945 8.99973
242 1 2.99728 45.0016 9.00224
244 1 9.00203 45.0059 9.00059
246 1 14.9948 44.9953 8.99804
248 1 20.9943 45.0017 8.99431
250 1 27.0031 45.0057 9.00003
252 1 33.0071 44.9987 8.99824
254 1 39.0002 45.0018 9.00369
256 1 44.9987 45.0092 9.00661
257 1 0.00259114 0.00577371 12.002
259 1 5.99975 -0.00100677 12.0025
261 1 12.0012 -0.000286492 11.9997
263 1 17.9974 0.00582416 12.0062
265 1 24.0019 -0.000809995 12.0016
267 1 30.0007 -0.00153744 11.9941
269 1 35.9941 -0.00187751 12.0043
271 1 42.0021 -0.00347567 12.0009
273 1 -0.00189187 5.9997 12.0006
275 1 6.00616 6.00586 11.9928
277 1 11.9987 5.99879 11.9924
279 1 18.0026 6.00118 11.9987
281 1 23.9943 5.99692 11.9926
283 1 29.9975 6.0094 12.0049
285 1 35.999 5.9943 12.0029
287 1 41.994 6.00575 12.0038
289 1 0.000823453 12.0064 11.9971
291 1 6.00162 12.0039 11.9941
293 1 11.9989 11.9985 11.9957
295 1 18.0056 12.0015 11.9999
297 1 23.9967 11.9947 11.9964
299 1 30.01 11.9953 12.0036
301 1 36 12.0076 11.9991
303 1 42.0016 12.0018 12.0002
305 1 -0.000523777 18.0004 12.0024
307 1 5.99449 17.9984 12.0058
309 1 11.9926 18.0031 11.9932
311 1 18.0055 17.999 11.9974
313 1 24.0026 18.004 12.0019
315 1 29.9949 18.0025 12.0033
317 1 35.9987 18.0063 12.0012
319 1 41.9938 17.9983 11.9943
321 1 0.00108142 24.0005 12.001
323 1 5.99957 23.9926 12.005
325 1 12.0013 23.9964 12.0009
327 1 18.0039 24.0095 11.9976
329 1 24.0072 24.0023 12.0042
331 1 30.0043 24.0001 11.9985
333 1 36.0005 24.0051 12.002
335 1 42.0098 24.002 11.9987
337 1 -0.0013577 29.9967 12.0058
339 1 5.99958 29.9975 12.0036
341 1 11.9942 30.0029 12.003
343 1 17.9979 30.0032 11.9964
345 1 23.9998 30.0028 11.9928
347 1 29.9925 29.993 12.0063
349 1 35.9975 30.0044 11.9932
351 1 42.0043 29.9973 12.0045
353 1 0.00170021 35.9974 12.0027
355 1 6.00378 36.0054 11.9985
357 1 11.9979 36.0055 12.0019
359 1 18.0067 35.9972 11.9935
361 1 23.9983 36.0005 11.9968
363 1 29.9973 36.0023 12.0015
365 1 36.0043 35.9996 12.0067
367 1 42.0066 35.9992 11.9998
369 1 0.00230045 41.9998 11.9983
371 1 6.00361 41.9988 11.9956
373 1 11.9956 41.9992 11.9955
375 1 17.9984 41.997 11.9995
377 1 23.999 42.0057 12.0017
379 1 29.9994 41.9988 12.0002
381 1 35.9931 42.0081 12.0071
383 1 42.0008 42.0006 12.0089
258 1 3.01067 3.00087 15.0008
260 1 8.99578 3.00708 15.0021
262 1 15.0005 2.9997 15.0077
264 1 21.0008 3.00396 14.9976
266 1 27.0056 3.00198 15.0018
268 1 33.0068 3.00409 14.9964
270 1 38.9906 2.99347 14.9985
272 1 44.9967 3.00883 15.0004
274 1 2.99893 9.00286 14.9956
276 1 9.00565 9.00176 14.9988
278 1 14.9977 8.99934 15.0041
280 1 21.0008 8.99111 15.004
282 1 26.9933 8.99288 15.01
284 1 32.9991 9.00052 14.997
286 1 38.9992 9.00345 14.9976
288 1 44.9977 9.00136 14.9955
290 1 3.00192 14.9919 14.9976
292 1 9.00279 14.9994 15.0031
294 1 14.998 14.9977 14.9978
296 1 20.9993 14.9912 15.0093
298 1 26.9939 14.9964 14.9966
300 1 33.0051 15.005 15.0114
302 1 38.9983 15.0049 14.9915
304 1 44.9975 15.0027 14.9991
306 1 3.0096 20.9979 14.994
308 1 9.00685 20.9992 14.995
310 1 14.9978 21.0062 14.9965
312 1 20.9997 21.0031 14.9999
314 1 27.005 20.9956 15.0012
316 1 32.9992 20.9959 15.0045
318 1 39.0024 21.0004 14.9945
320 1 45.0009 21.0114 14.9947
322 1 3.00561 26.9924 14.9905
324 1 9.00388 27.0067 15.005
326 1 15.0041 27.0038 15.0038
328 1 21.0048 27.0032 14.9988
330 1 26.9965 26.9947 15.0055
332 1 33.0009 26.9884 14.9975
334 1 38.9998 27.0034 15.0072
336 1 44.9949 26.9942 15.0025
338 1 2.99287 32.999 15.0047
340 1 8.99742 33.0033 15.0021
342 1 14.9994 33.0059 14.9929
344 1 21.005 32.9976 15.0014
346 1 26.9989 32.9965 14.9985
348 1 33.0003 32.9973 14.9976
350 1 39.0069 33.0062 15.0003
352 1 45.0038 33.0027 14.9996
354 1 2.9999 38.9981 14.9952
356 1 9.00338 39.0001 14.999
358 1 15.0029 38.9943 15.0026
360 1 21.0006 38.9995 14.9899
362 1 27.0001 39.003 14.991
364 1 33.0021 38.9978 15.0002
366 1 39.0028 39.0021 14.9982
368 1 45.0007 39.0024 14.9989
370 1 3.00954 44.9922 14.9931
372 1 8.99663 45.0067 15.003
374 1 15.0023 44.9964 15.0018
376 1 21.0002 45.0097 14.999
378 1 27.0036 44.9977 15.0038
380 1 33.0038 45.0037 15.002
382 1 39.0007 45.0025 14.9991
384 1 45.0004 45.0024 15.0001
385 1 -0.00241227 0.000397506 18.0018
387 1 5.99593 -0.00632615 17.9984
389 1 11.9968 0.00260938 18.0043
391 1 17.9975 -0.000496999 17.9966
393 1 24.0069 -0.00355916 18.0061
395 1 30.0077 0.000354141 18.0027
397 1 35.9939 0.00372833 17.9948
399 1 42.005 2.79165e-05 18.0002
401 1 -0.00278564 5.99784 17.9984
403 1 5.99975 5.99749 17.9985
405 1 11.9932 6.00214 18.0054
407 1 18.0004 6.00415 18.0025
409 1 23.9975 5.99844 17.9993
411 1 30.0019 6.0048 17.9982
413 1 36.001 5.99555 18.0056
415 1 41.9996 5.99284 18.0037
417 1 0.00192366 12.0013 18.0024
419 1 5.9996 12.0027 18.0024
421 1 12.0018 12.0032 17.9994
423 1 18.0055 11.998 17.9993
425 1 24.002 11.9981 18.0002
427 1 29.9967 11.9993 17.9999
429 1 36.0083 12.0023 17.9993
431 1 42.0001 11.993 17.9946
433 1 0.00373045 17.9958 18.0054
435 1 5.99715 18.0006 17.994
437 1 12.0019 17.9995 17.9984
439 1 18.0004 17.9989 18.001
441 1 24.0039 18.0025 17.9939
443 1 29.9919 17.9969 18.0009
445 1 36.005 17.9969 18.0002
447 1 42.0015 18.0008 18.0024
449 1 0.00228754 24.0022 18.0018
451 1 6.00288 24.0052 17.9985
453 1 11.9985 24.0013 18.0015
455 1 18.0006 24.0026 18.0008
457 1 24.0036 23.9953 18.0056
459 1 29.9966 24.0016 18.0003
461 1 36.0043 24.003 18.0022
463 1 41.9968 24.0016 18.0073
465 1 0.000942377 30.0002 17.9983
467 1 5.99523 30.0043 18.0042
469 1 11.9976 29.9908 17.9997
471 1 18.0011 30.0012 18.0027
473 1 24.0084 30.0001 17.9952
475 1 30.0046 29.9923 18.0036
477 1 36.0017 30.0004 17.9966
479 1 42.0001 29.9988 18.0033
481 1 -0.00506612 35.9972 17.994
483 1 5.99884 35.994 17.9994
485 1 11.9947 36.0004 17.9997
487 1 17.9971 36.0034 18
489 1 23.9934 36.0062 18.0126
491 1 29.9998 36.0019 18.002
493 1 36.0024 35.9976 17.997
495 1 42.004 35.9972 17.9934
497 1 0.00298522 42.0007 17.9982
499 1 6.00073 41.9979 17.9933
501 1 11.9987 42.0012 18.0005
503 1 18.0021 41.9998 17.9944
505 1 24.0056 42.0012 17.9997
507 1 30.004 42.0032 17.9982
509 1 35.9944 41.9999 18.0017
511 1 41.9973 42.0058 18
386 1 3.00195 3.00019 20.9985
388 1 8.99633 2.99558 20.9927
390 1 14.9997 2.99932 20.9969
392 1 21 3.00529 21.0098
394 1 27.0028 2.99626 21.0036
396 1 32.9878 2.99177 20.9937
398 1 38.9995 2.99901 20.9933
400 1 45.0062 2.99944 21.0026
402 1 2.99589 8.99584 20.9998
404 1 9.00738 9.00365 20.9946
406 1 14.9941 9.00821 21
408 1 21.0019 8.99835 20.9951
410 1 26.999 9.00561 20.9972
412 1 33.0015 9.00746 20.996
414 1 38.9956 9.00879 20.9943
416 1 45.0032 9.00562 21.0011
418 1 3.00076 14.9949 21.0035
420 1 8.99634 15.0018 21.0042
422 1 14.9932 14.9937 21.0052
424 1 21.0029 15.0033 20.9967
426 1 27.0032 14.9983 20.9986
428 1 32.9963 14.9995 20.9991
430 1 38.9926 15 20.9969
432 1 45.0011 15.0042 21.0036
434 1 2.99735 21.0073 21.0007
436 1 8.99624 20.9983 20.9991
438 1 15.0014 21.0011 20.9994
440 1 20.9936 21.0026 21.005
442 1 27.0069 20.9955 21.004
444 1 33.0004 21.0037 21.0028
446 1 38.9928 20.9978 21.0003
448 1 45.0021 20.9924 20.9984
450 1 3.00431 27.0009 20.996
452 1 9.0094 27.0058 21.0137
454 1 15.0029 27.0048 20.998
456 1 21.0043 27.0027 20.9948
458 1 27.0015 27.0023 21.0016
460 1 32.9952 26.9929 21.0023
462 1 38.9986 27.0003 20.9967
464 1 45.0051 27.0014 21.0005
466 1 3.00649 32.9953 20.9894
468 1 8.99776 32.9954 21.0006
470 1 15.005 32.9979 21.0108
472 1 20.9978 32.9937 20.9968
474 1 26.9977 32.9927 21.0003
476 1 33.001 32.9981 20.996
478 1 38.995 33.0033 20.9973