# STO frame

        2 atoms
 
        1  atom types

0 6.0 xlo xhi
0 6.0 ylo yhi
0 6.0 zlo zhi

Masses

1 96


Atoms 

1 1 1 0.0 0.0 0.0 0.0
2 1 1 0.0 3.0 3.0 3.0

