960
Lattice="23.46602120792972 -0.0003885826383443868 0.0010318859689922937 0.0 22.102012568803868 -0.000674010438341383 0.0 0.0 22.106328935373966" Properties=species:S:1:pos:R:3:momenta:R:3:forces:R:3 energy=-7679.157134099115 stress="-0.03215234016221662 6.659595767680679e-05 -0.001399837909867203 6.659595767680679e-05 -0.03446241377944735 0.0016504821611207864 -0.001399837909867203 0.0016504821611207864 -0.03259752489098902" free_energy=-7679.157134099115 pbc="T T T"
O        2.13711470       1.38512667       2.79643841      -0.70337287      -0.17558017       0.10484108      -0.47192902      -0.32775536      -0.00110845
O        5.90435428       4.10100503       0.04041798      -0.72701183       0.20415713       0.53496035       0.33227419       0.26404465       0.10247690
O        2.17417418       1.52352049       0.04455768      -0.15999759       0.47802372      -0.89146879      -0.53723485      -0.55492670       0.18081142
O        5.95931038       4.13278061       2.82825062      -0.10470759       1.11584718      -0.05123103      -0.07448145       0.91977686      -0.35335311
O        5.69427293       1.48352188       2.69816422       0.36033827       0.06949982       0.07205249       0.09584610       0.04469616      -0.18652737
O        1.75060228       4.20239651       5.43756586       0.26431519       1.09092997       0.29372852       0.10758190       0.40990766       0.11751303
O        1.92491553       4.10021950       2.64711375      -0.01674767       0.48725610      -0.00974333      -0.30777818      -0.05923119       0.43649702
O        5.86580196       1.21381922       5.39911340      -0.19056676       1.02046970       0.35957182       0.22728020       0.44710087       0.08341790
O        0.07115165       0.16039715       1.40143546       0.92876653      -0.47634748      -0.32738058      -0.08997657       0.10398021       0.11753018
O        3.89776323       2.91275909       4.25440242      -0.51690136       0.08846011      -1.03566472      -0.32599090       0.03364019       0.02023231
O        3.97490562      -0.01349989       1.31355686      -0.48730822       0.37624915       0.41530360      -0.70597820      -0.67256595       0.30791376
O       -0.05576062       2.62073802       4.11579047       0.51959710       0.29521295      -0.05520430       0.55742858      -0.06436900      -0.49452454
Ti       2.03691939       5.58113789       1.40696329       1.31822838       0.93427852      -0.53476689       0.00515757       0.20501259      -0.05599806
Ti       5.88339985       2.74447425       4.21810381       1.28196464      -0.05231423      -1.45413038       0.16364771      -0.03832025      -0.40942532
Ti       5.92299735      -0.00301223       1.45201043      -0.86624811       1.26704916      -0.57389345      -0.17130082       0.37489369       0.20323685
Ti       1.95069944       2.79587250       4.11475905      -0.43669197       0.31089325       0.16796074       0.20917400      -0.48977216       0.01897991
Sr      -0.03328447      -0.06074206       4.21923619      -0.12903688       0.25846785       0.96171862       0.13177622       0.30390546      -0.21481281
Sr       3.85834671       2.81283598       1.44580469      -1.76078813      -0.48199159       0.62464338       0.58360362      -0.36728108      -0.19900340
Sr       0.00076093       2.85478133       1.38345650       0.69529411       1.08942501       0.51599817       0.13819862      -0.37857487      -0.14366011
Sr       3.90996629       0.07097557       4.06357247      -0.18859850       0.79255316      -1.00363584       0.28368053      -0.16801841       0.37025280
O        2.18106995       1.40992995       8.28429723       0.15317877       0.67678095       0.41199532      -0.38162767      -0.62289845       0.01338407
O        5.96919189       4.09627346       5.55131309       0.52852763       0.57816342      -0.29315232       0.13144038       0.20632191       0.50339475
O        1.94724296       1.45710099       5.53734680      -0.62443630       0.40591796      -0.01093129       0.03420500      -0.30937149       0.14863764
O        5.69636059       4.30386447       8.36731995      -0.01918509       0.45655402       0.40880988       0.45349228      -0.27927947       0.40135647
O        5.63996566       1.52850676       8.13991069      -0.12974158       0.15742420       0.65960549       0.08256403      -0.20546135       0.20955797
O        1.71578380       4.24482405      10.95643275       0.26325235      -0.25281641       0.17668742       0.14796517       0.13491391       0.09599186
O        2.11652555       4.05577135       8.23902566       0.61370094       0.39545255       0.43173985      -0.72608959       0.37251043      -0.28151347
O        5.90978491       1.29659985      10.93369712      -0.06718640       0.17071297      -0.44844122      -0.11090513      -0.35421772       0.04022720
O        0.03072622       0.10072031       7.01727607       0.28942063      -0.63758210      -0.09566801      -0.30819667       0.10249057      -0.13821111
O        3.86513394       2.79141716       9.88894200       0.21413420       0.02795530       0.18136188       0.59288684       0.26197097       0.09331542
O        3.94854050      -0.20240217       6.67016604      -0.36670697       0.20890056      -0.32180738       0.04105151       0.49714964       0.32982077
O       -0.08248687       2.62564561       9.49126386      -0.22721998      -0.08264022      -0.09226688       1.09990357       0.11017799       0.04895887
Ti       1.87414730       5.53301696       6.87500279      -0.66422822       0.67693195      -0.66498856       0.52064468      -0.32673507       0.74135432
Ti       5.78156538       2.72446091       9.69849193       0.98782292      -0.51929909      -0.69857377      -0.22728368       0.13591808      -0.22043868
Ti       5.86003841      -0.00798033       6.92687703      -0.94693875       0.27578812      -0.14694152      -0.56069298       0.24810596      -0.23282282
Ti       1.84711043       2.80697369       9.67312353       0.15198807       0.12595557       0.93509329       0.08034686      -0.06515173       0.27305351
Sr      -0.05148312       0.05923874       9.71737843      -1.76986557      -0.03466268       1.30431177      -0.08803730       0.04442438      -0.33994729
Sr       3.81232641       2.72427039       6.93347232      -0.97054057      -0.00461591       0.36292929       0.53763314       0.43504576      -0.23874486
Sr       0.02951296       2.75569686       6.86230389       0.12231446      -0.81617233      -0.53789035      -0.52812497       0.22030857       0.17623652
Sr       3.89111930       0.02664096       9.72710382      -1.06545282      -1.55453786       1.39145904      -0.11529056       0.18674238      -0.29203494
O        2.06667171       1.38187310      13.88745130      -0.08777556       0.66332873       0.05609139       0.19603599      -0.34479855       0.06181574
O        6.12298911       3.97104515      11.20561072       0.04216809      -0.58372285      -0.97462453      -0.21558706       0.68352182      -0.32878362
O        1.84708656       1.47510694      11.12407845      -0.89979560      -0.02210490       0.05490753       0.19237233       0.07780882       0.01315126
O        5.81487849       4.19311503      13.85581203      -0.45656635      -0.83606927      -0.20064253       0.41341975       0.14621978       0.32252586
O        5.78120323       1.47516451      13.69034256      -0.01419973      -0.83583654       0.18070403      -0.30714974       0.15005327       0.40835143
O        1.86254729       4.25342149      16.54048878      -0.08258635      -0.32871625      -0.92073146      -0.23402456      -0.52044684      -0.29551679
O        1.86949385       4.02399026      13.79259374       0.50245719       0.37435933       0.33230330       0.04267509       0.65894983      -0.40755789
O        5.82045891       1.35801941      16.49385311      -0.94673053       0.37385460       0.08120534       0.10224370      -0.41502573      -0.02053240
O       -0.04328695       0.14995341      12.56290624       0.26503549       0.45182463      -0.34564538       0.08432797       0.10478014       0.02546938
O        3.91818909       2.98095470      15.23694593      -0.86130162      -0.31250205      -0.05923338      -0.26807118      -0.75892002       0.12074643
O        3.90605762      -0.11788061      12.35909355      -0.10452999       0.10265602      -0.41391572      -0.16339818       0.29422141       0.17778790
O       -0.10239465       2.54293398      15.23101132      -0.71372604      -0.19057996      -0.13752362       1.47291741       0.65030219      -0.19557334
Ti       1.94806618       5.53014262      12.46210497      -0.86083138       0.62289752      -1.11958624      -0.25195311      -0.04514419       0.13686201
Ti       5.82230615       2.80206640      15.15674697      -1.83384039      -0.40659230       0.62880560       0.15184510      -0.12738300       0.28217058
Ti       5.80703711      -0.00692537      12.44816509       1.01837450      -0.15797046       0.20476536       0.71197469      -0.12349229      -0.02259243
Ti       1.95233094       2.75045453      15.20850685       1.04055273      -0.57900802       0.27953151      -0.25774222       0.46807703       0.36729974
Sr       0.01171885       0.15786523      15.16528285      -0.49784197       0.39390249      -0.13694462      -0.33735960      -0.92487487       0.43255547
Sr       3.90352131       2.75443486      12.46561600       0.26413862       0.13758918       0.42854942      -0.13310344      -0.08701931      -0.16548670
Sr       0.03532835       2.87145484      12.52354216      -0.05699051       1.80746225       1.19449198      -0.39450509      -0.30061145      -0.18991071
Sr       3.85576950       0.00865051      15.22121816      -3.02426903       0.58964376      -0.57249635       0.38529314      -0.02216829      -0.08574829
O        2.18435861       1.32110460      19.35453656       0.41476991       0.27273796       0.83529674      -0.00015540       0.10096405       0.21700402
O        5.94861765       4.10657209      16.63954361      -0.57816234       0.14740317       0.26439564       0.29616438      -0.15637924      -0.24066725
O        2.03404345       1.46103682      16.67069498      -0.58022591       0.10207979      -0.58389169       0.10208766      -0.17306304      -0.39359219
O        6.05280953       4.25436038      19.36726772       0.11471746       0.21790745      -0.41143186      -0.27727007      -0.14993651       0.17957867
O        5.86927398       1.44895799      19.25482543       1.08710999      -0.36612473      -0.49450350      -0.50198777       0.05184014      -0.09129025
O        1.81918239       4.25466255      22.00696969       0.76650912      -0.71692999       0.62152659       0.10866324       0.08609784       0.32586338
O        1.91688466       4.17440709      19.28884373       0.62306521       1.02104550      -0.04296533      -0.15672930      -0.56466662       0.18690956
O        5.87684207       1.31036668      21.94137478       0.70922941       0.01984346       0.23702433      -0.22704418      -0.13871898       0.50918529
O        0.05142481       0.04313389      18.07316129      -0.33953542      -0.01242630      -0.54218864       0.08099693      -0.07199415      -0.44036281
O        3.97964959       2.96067638      20.71277618      -0.08411401      -0.11201503       0.02830304      -0.39740870       0.18910612      -0.28689290
O        3.99952201      -0.11530410      17.83064185       0.53180348      -0.19356388       0.73274346      -0.45112447      -0.06431268       0.45248577
O        0.09138426       2.58107825      20.71621520      -1.02967637       1.74476405       0.43608083      -0.53072693      -0.02894627      -0.09816165
Ti       2.04394410       5.58307786      17.94658956       0.88829033       1.08538669      -0.27019357       0.15288345      -0.52173400      -0.35850453
Ti       5.89875948       2.74042255      20.72178163      -0.72671079      -1.71494291       0.61699608       0.14487892      -0.07664893       0.21649343
Ti       5.92561793       0.00235462      17.88960568       0.84563117       1.21260439      -0.56103346      -0.00551495      -0.21412714       0.13915764
Ti       2.07299541       2.88816304      20.76928702       0.58137934      -0.39732549       0.41840709      -0.17277336      -1.08800817      -0.21931474
Sr      -0.01799587      -0.05141543      20.73920151       0.15517323      -0.01475908       1.35541894       0.20263158       0.18120826      -0.30982721
Sr       3.90890772       2.73086609      17.95467359       0.01088905       0.47283465      -1.13969131       0.22442041       0.25855945       0.06683758
Sr       0.17388570       2.68682301      17.90684331       1.97185180       0.37000193      -0.69303947      -0.59761961       0.23990008       0.32697245
Sr       3.94971755      -0.16595503      20.73789775       1.98314271      -0.85238412      -0.21955903       0.15145964       1.06065192       0.22175132
O        1.99157824       6.90395904       2.83581575       0.29229533       0.47989965      -0.03694011       0.38718565      -0.83228115      -0.52445202
O        6.08051077       9.58961367       0.10046590      -0.19781255      -0.32892829       0.07478857      -0.25862653       0.35026206       0.30934226
O        2.10866399       6.92782765       0.02884398      -0.13216398      -0.26322854      -0.18601005      -0.33832651       0.58424480      -0.06022481
O        5.97400937       9.83514072       2.90169657      -0.26653621      -0.64686887       0.81572355      -0.39744486      -0.51485238      -0.22477737
O        5.68270026       6.99169176       2.65170294      -0.52237375       0.74129796      -0.54213691      -0.04008166       0.40769020       0.69739164
O        1.84906160       9.72310078       5.46826543       0.55346289       0.22472158       0.61289943      -0.43888720       0.02678928      -0.19730413
O        1.85489548       9.63421737       2.69348977       0.19257414       0.46057885       0.12375821       0.28730259      -0.02586637       0.01923610
O        5.80245251       6.89840700       5.47430465      -0.88090328       0.17007761       0.30374240      -0.11798092      -0.15097865      -0.45946257
O       -0.01403308       5.59958145       1.39874099      -0.04769553      -1.11473289      -0.48427274       0.08463392       0.32700366      -0.17233200
O        3.85151831       8.38359172       4.22258947      -0.41613084       0.18650983       0.08662537       0.75009262       0.19225934      -0.16258640
O        3.91768613       5.33376188       1.31952581      -0.38308532      -0.29659299       0.07911395      -0.56421838       0.49786426       0.27956189
O       -0.01165299       8.23388453       3.96977496      -0.03827628       0.08794782       0.01379367       0.01369484      -0.17455556       0.67370734
Ti       1.86759181      11.04460234       1.28493262      -1.52830006       0.05293191       0.26812251      -0.11472814       0.16726119       1.26524990
Ti       5.83270288       8.24696853       4.15087454      -1.70975221      -0.10273938      -0.55622132       0.07976780       0.21746648       0.06514393
Ti       5.87732235       5.53127428       1.34765342      -1.81347495       0.08727298      -0.24815121       0.07884624      -0.31006984       0.15868259
Ti       1.94944928       8.35732659       4.19972274      -0.41551106       1.13733647       0.75944343      -0.37007295       0.33318350      -0.63649141
Sr      -0.01315247       5.62975473       3.99451326       0.14120692      -1.11512372      -1.45907496      -0.34721917      -0.33482692       0.56791269
Sr       3.82912132       8.31810360       1.29557149       0.01489326       0.00352980      -0.40995681       0.28847047      -0.28110101       0.37990531
Sr      -0.04615226       8.32208822       1.41658558       0.78970658       1.48099988       0.09522228       0.14173619      -0.07817335      -0.10002573
Sr       3.83404903       5.55681260       4.25974136       0.30545189      -0.67657129       0.70135036       0.40860086      -0.17887042      -0.41871039
O        1.98327842       6.80170569       8.39977591       0.37377166       0.17781759      -0.91083929       0.07491135       0.05107453      -0.15831510
O        6.05273674       9.61123399       5.65304150       0.17395165      -0.12510938      -0.07234032      -0.31734935      -0.22764890      -0.47771967
O        1.98419706       6.96723739       5.64928066      -0.16427386       0.68118746      -0.03730645      -0.52273807       0.38755497      -0.57872321
O        5.96038230       9.85599230       8.38397662      -0.38781914      -0.35477771       0.27866573      -0.24012170      -0.30815031       0.43214416
O        5.88667685       7.05846739       8.14586199       0.40422234       0.36870144       0.33416077      -0.57749635       0.16353577       0.21424299
O        1.92571951       9.74780603      10.94086534       0.38484671      -0.46023034      -0.09681160      -0.26992844       0.31658083       0.26275058
O        1.88671300       9.56182831       8.13866759       0.21765206      -0.42993312      -0.76199609       0.10523245      -0.18193085       0.71415011
O        5.79611285       6.76994334      10.95308869      -0.18976137       0.52036296       0.09151811       0.04576525      -0.28761584       0.27743113
O       -0.02172464       5.57017150       7.03383743       0.38669137      -1.08509228      -0.28700219       0.48704725       0.07691262      -0.10876904
O        3.89322776       8.31805443       9.67502261      -0.74319784       0.11153571      -0.85653653       0.43510234       0.37676417      -0.21605651
O        3.87477268       5.52048046       6.81096766      -0.03782076       0.99216508      -0.36484562       0.07021861       0.03510787      -0.09621371
O        0.02950919       8.19725716       9.65648920      -0.24996190       0.26477119       0.34762772      -0.32755732       0.00061656      -0.07155398
Ti       2.06134492      11.02152465       6.98881769      -0.09516313      -1.08969332      -0.76890705      -0.38786029       0.76953754      -1.12888925
Ti       5.86472321       8.34182911       9.65751129      -0.39268364       0.10511318      -0.41869359       0.07552287      -0.27510857       0.03794149
Ti       5.83434191       5.58897171       6.93159767      -0.33909031       1.18676426      -0.48312324      -0.33913590      -0.65622899       0.26374489
Ti       1.91585530       8.24678780       9.68747208      -2.22736062      -0.01731023       0.35532293      -0.08013785      -0.21617511      -0.39644112
Sr      -0.06407135       5.63560566       9.69980287      -0.44230412      -1.01526946      -0.02777594      -0.10333785      -0.62599566       0.00971771
Sr       3.82211657       8.28011526       6.92376750      -0.43310719      -2.04364629      -1.06083074       0.45858760      -0.06615962      -0.04404720
Sr      -0.05691677       8.30628562       6.88297861      -0.66268604       0.04069826       0.27812263      -0.02492283      -0.03581460       0.19308583
Sr       3.85715417       5.53770097       9.67096901      -1.28670110      -0.13896576      -0.50247349      -0.08277321      -0.18327119      -0.08990140
O        2.16485922       6.82213175      13.90000276       0.26228819       0.01409175      -1.07795046      -0.47219662      -0.37602292      -0.57565034
O        6.02701516       9.50478628      11.11489268      -0.15023429       0.84230365       0.80235838      -0.68230608       0.74292875       0.45459312
O        2.01415813       7.01876605      11.13793565      -0.10704643      -0.53224741       0.14873245      -0.16206723      -0.41949682       0.54073172
O        5.94360501       9.80602033      13.90438011      -0.47497044       0.06170390       0.49750303      -0.21517392       0.21986846      -0.24502238
O        5.63044554       6.94709111      13.77200109      -0.44261470      -0.76566675       0.22594353      -0.04283646      -0.21671427      -0.80375087
O        1.77258879       9.77327100      16.44428810      -0.38697596      -0.17438219      -0.10149928       0.02847184       0.03405191       0.48250722
O        1.91369233       9.55605371      13.71799283       0.15335279      -0.34196561       0.67227132      -0.21075822       0.50105121      -0.58455677
O        5.65611532       6.87220698      16.50410454       0.57547403      -1.11932218      -0.06819240       0.73948882       0.11644557      -0.24196591
O       -0.00222321       5.58806404      12.58233336       0.30024840       0.07056521      -0.14142441       0.19072734       0.40716783      -0.03692281
O        3.87456272       8.44627653      15.14438149       0.09512213       0.31069449       0.45418954       0.51293653       0.39158046       0.35934198
O        3.88541930       5.27890718      12.33202790       0.24905367      -0.14677851      -0.06995068       0.06274417       0.26952858      -0.06765304
O        0.00275168       8.10785510      15.08698499      -0.74631355       0.35771576      -0.39831761      -0.25208747      -0.09154902       0.03543216
Ti       1.97807721      11.05843761      12.40872626      -0.93887795      -0.45658292      -0.57902988      -0.63060194      -0.13159068       0.64777081
Ti       5.89001636       8.19297766      15.10375952       0.46266903       0.40601623      -0.68924026      -0.35747618       0.30166653       1.14975623
Ti       5.84592229       5.50172962      12.41144154       0.07829612       0.17954606      -1.22462865       0.13718272      -0.13852157      -0.47830368
Ti       1.97219090       8.29811267      15.22904855       0.46330147       0.67200249      -0.50108375       0.35458049       0.09121328      -0.10498161
Sr       0.01804379       5.53391274      15.17171254       0.90704168      -0.18424410       2.08870578       0.01950280      -0.28382307       0.34674868
Sr       3.82346896       8.39715348      12.37265586      -0.97340137       1.28164053       0.08924291       0.39564344      -0.67849559       0.31191923
Sr       0.05347611       8.24488709      12.53117587      -0.65291216       2.05246637       0.95187515      -0.36548267      -0.04927753      -0.38487827
Sr       3.92314133       5.54970180      15.18857098      -2.98598431       1.55927425       1.81616654      -0.13076594      -0.08542603       0.26954892
O        2.02933621       6.85245436      19.42528117      -0.14666338      -0.93032261      -0.09837104       0.01253763       0.74376277       0.29226835
O        6.05942387       9.49778785      16.69542390       0.24482394      -0.75467505      -0.27788594      -0.21267773       0.72985357      -0.18884362
O        2.06398958       6.97481038      16.64645995       0.03018286      -0.54133873      -0.47433266      -0.17279548       0.73282793      -0.17123939
O        5.94266106       9.75903949      19.44378358      -1.10318569       0.31519115       0.42216290       0.11447950       0.14637367      -0.10504434
O        5.71701952       7.00059703      19.34627206      -0.08219340      -0.34443760       0.93595270       0.27405612      -0.08248966      -0.36200757
O        1.58452665       9.74052299      22.07763451      -0.06771768      -0.26261175       0.26852832       0.69597517      -0.64437836      -0.57814364
O        1.84261645       9.62477143      19.29434923      -0.33205878       0.66618478       0.19596697       0.11232430      -0.05958635       0.13202245
O        5.74201684       6.89013198      22.06855089      -0.24936528       0.56074228       0.46118743      -0.09577810      -0.17773007      -0.07516782
O       -0.01162386       5.71391587      17.90713556      -0.51075879      -0.68516576       0.91892738       0.67204434       0.18581456       0.05274560
O        3.94617823       8.56914781      20.81637951      -0.64157235      -1.21261501      -0.28129766      -1.05466184      -0.33735292      -0.00670378
O        3.91059305       5.47420902      17.91830132       0.85426778       0.12416332      -0.22440583       0.12267016      -0.33316679       0.41435829
O       -0.05696014       8.14546328      20.69002031       0.18462509       0.51494745      -0.57237944       0.58975495      -0.17241077      -0.01040958
Ti       1.93839628      11.13372320      17.96175691      -1.40199180       0.39447956      -0.11609368       0.06925328      -0.00171034       0.07471366
Ti       5.92995860       8.27606646      20.76558392       0.86559343      -0.63584035      -0.46186222      -0.39918630       0.08158229      -0.02218083
Ti       5.95474493       5.52403892      17.99315910      -0.34161675       1.33083362       0.52253244      -0.61238499       0.10602713      -0.24543151
Ti       1.91815871       8.34044841      20.68495134       0.20719347       0.19876475      -0.07713048       0.34192786      -0.12939900       0.06378586
Sr       0.11023131       5.57540507      20.70684375       1.71623720       1.25266369      -0.84832610      -0.49431561      -0.20295114      -0.14869120
Sr       4.04119901       8.37101940      17.92883692       1.44258303      -0.07617608       0.11243703      -0.26402100      -0.65446639      -0.03041400
Sr       0.11038878       8.41636046      18.00860800       0.18594203       0.09474236       0.87550597      -0.57699161      -0.52658148      -0.33584286
Sr       3.89943668       5.60892366      20.67726796      -0.25368347      -0.63966978      -0.05404822       0.41021360      -0.22928120       0.11343990
O        2.02172201      12.35261926       2.84300177      -0.06817748       0.30079328       0.41347232       0.12037445       0.31502565      -0.41322028
O        6.02885099      15.07627319      -0.01968513      -0.21883869      -0.31286035       0.25774935       0.32463761       1.00767930       1.27394239
O        1.99496785      12.45370892       0.03997050       0.29542010      -0.21451053      -0.42990763       0.24299779       0.27865180      -0.05285397
O        6.00106189      15.25337348       2.72630084       0.21910518      -0.06185970      -0.03237740      -0.32958943      -0.05765599       0.38807648
O        5.72017838      12.48685075       2.66573219      -0.00636355      -0.69673694      -0.34015897      -0.14058376       0.41535656      -0.06845176
O        1.82567902      15.25747096       5.51309718       0.38565047       0.18966108       0.35762794      -0.00405939       0.04288517      -0.48148916
O        1.84214284      15.13465630       2.61815215      -1.00087159       0.01594302       0.13338113       0.22561958      -0.25919962       0.52866530
O        5.70190913      12.37055050       5.36119016      -0.75957221      -0.40677364      -0.22564061       0.19706842       0.14033929       0.02534418
O       -0.05079271      11.25551304       1.41260478      -0.11648059      -0.38994968      -0.23611884      -0.24864518      -0.03089206      -0.06325880
O        3.83448685      14.09365864       4.09091884       0.78492086      -0.06326556      -0.74919493       1.06538479      -0.49504597      -0.01970832
O        3.87590318      10.84139304       1.28045977      -0.26411536       0.54598723      -0.05286364       0.01509991       0.05082416       0.08956096
O       -0.06445511      13.73342078       4.09737933       0.10858358       0.00418719       1.06435392       0.08939002       0.12998222       0.01577812
Ti       1.99279601      16.55511829       1.38106160      -0.04810221      -1.63472065       0.28070501      -0.45770334       0.53857977       0.02472365
Ti       5.87021875      13.77768488       4.10799188       0.25864696       0.25757148      -0.22083320       0.19711377      -0.05775128       0.47703451
Ti       5.77444894      11.01072700       1.39197137      -0.06340249       1.96648358      -0.57808400       0.70850355       0.32021410      -0.46493165
Ti       1.96604304      13.88332285       4.17358016      -0.09965062      -0.50644404       0.88518074      -0.40604124      -1.02111229       0.07376346
Sr       0.06575217      11.15809880       4.07046450       0.21492596       0.25347755      -0.39084580      -0.01012092      -0.31109734       0.19156585
Sr       3.86872604      13.78180762       1.34229211       0.02464061      -1.47474872      -0.47405166       0.16532000      -0.01940675       0.03454103
Sr       0.01729762      13.84169362       1.37413603       0.40671311       0.03920805       0.87806673      -0.32797940       0.03910516       0.03740754
Sr       3.80571748      11.07919764       4.04719323      -1.28394292       0.46464342       0.63289019       0.19510890      -0.09970577       0.52052090
O        2.11322634      12.34831472       8.33806752      -0.54896190      -0.39737263      -0.00059134      -0.08301041       0.18507803       0.45550016
O        5.99736594      15.18261585       5.59665933      -0.71514490      -0.00504356       0.38801431      -0.34880736      -0.77764699      -0.61085919
O        2.05261200      12.53048681       5.55301906      -0.24898587      -1.21712347       0.11905284      -0.14073516       0.07437712      -0.07980217
O        5.90170446      15.39113421       8.37246264      -0.06782232       0.73762983       0.12869721      -0.09854219      -0.49580676       0.29068141
O        5.68097151      12.60883268       8.09540005       0.25229161       0.48698432      -0.55663166       0.11770966      -0.08978517       0.01749861
O        1.94347214      15.32122949      10.99120988       0.11528914       0.45543283       0.03059890      -0.52553692      -0.28514469      -0.53663438
O        1.91939934      15.11040558       8.23458285       0.12385750       0.35829820      -0.55197475      -0.26839026       0.05742800      -0.03382158
O        5.79575651      12.34341501      10.84324139       0.34891184      -0.66416527      -0.64769356      -0.24385700      -1.13594653       1.03348056
O        0.02764282      11.22249977       6.91567195      -0.04244704       0.22825002       0.02472395      -0.21657829      -0.04232827      -0.09350002